# Probe 0 (0.181 7.37 0.5)
# Probe 1 (0.819 0.63 0.5)
# Probe 2 (0.181 0.63 0.5)
# Probe 3 (0.819 7.37 0.5)
# Probe 4 (0.181 4 0.5)
#       Probe             0             1             2             3             4
#        Time
        0.002 -1.79769e+307  -4.88667e-07   -4.8865e-07 -1.79769e+307 -1.79769e+307
        0.004 -1.79769e+307   -5.1647e-05  -5.16468e-05 -1.79769e+307 -1.79769e+307
        0.006 -1.79769e+307  -0.000530727  -0.000530724 -1.79769e+307 -1.79769e+307
        0.008 -1.79769e+307   -0.00215585   -0.00215566 -1.79769e+307 -1.79769e+307
         0.01 -1.79769e+307   -0.00588564   -0.00588443 -1.79769e+307 -1.79769e+307
        0.012 -1.79769e+307    -0.0158935    -0.0158885 -1.79769e+307 -1.79769e+307
        0.014 -1.79769e+307    -0.0611984    -0.0611788 -1.79769e+307 -1.79769e+307
        0.016 -1.79769e+307     -0.139958     -0.140019 -1.79769e+307 -1.79769e+307
        0.018 -1.79769e+307     -0.109167     -0.109277 -1.79769e+307 -1.79769e+307
         0.02 -1.79769e+307    -0.0975651    -0.0977113 -1.79769e+307 -1.79769e+307
        0.022 -1.79769e+307     -0.074932    -0.0751576 -1.79769e+307 -1.79769e+307
        0.024 -1.79769e+307    -0.0410295    -0.0415382 -1.79769e+307 -1.79769e+307
        0.026 -1.79769e+307   -0.00629782   -0.00712941 -1.79769e+307 -1.79769e+307
        0.028 -1.79769e+307    -0.0149468    -0.0159243 -1.79769e+307 -1.79769e+307
         0.03 -1.79769e+307    -0.0414827    -0.0418091 -1.79769e+307 -1.79769e+307
        0.032 -1.79769e+307    -0.0597369    -0.0610604 -1.79769e+307 -1.79769e+307
        0.034 -1.79769e+307    -0.0908056    -0.0964175 -1.79769e+307 -1.79769e+307
        0.036 -1.79769e+307     -0.121993     -0.139204 -1.79769e+307 -1.79769e+307
        0.038 -1.79769e+307     -0.111802     -0.153313 -1.79769e+307 -1.79769e+307
         0.04 -1.79769e+307     -0.114293     -0.210108 -1.79769e+307 -1.79769e+307
        0.042 -1.79769e+307     -0.107749     -0.214034 -1.79769e+307 -1.79769e+307
        0.044 -1.79769e+307     0.0427639     0.0629259 -1.79769e+307 -1.79769e+307
        0.046 -1.79769e+307     -0.074286    -0.0142176 -1.79769e+307 -1.79769e+307
        0.048 -1.79769e+307     -0.120984    0.00586621 -1.79769e+307 -1.79769e+307
         0.05 -1.79769e+307    -0.0872518     0.0615748 -1.79769e+307 -1.79769e+307
        0.052 -1.79769e+307    -0.0125856      0.166484 -1.79769e+307 -1.79769e+307
        0.054 -1.79769e+307    0.00880643      0.211129 -1.79769e+307 -1.79769e+307
        0.056 -1.79769e+307     -0.255825      0.167558 -1.79769e+307 -1.79769e+307
        0.058 -1.79769e+307    -0.0556946       0.14042 -1.79769e+307 -1.79769e+307
         0.06 -1.79769e+307     0.0802561      0.041401 -1.79769e+307 -1.79769e+307
        0.062 -1.79769e+307    0.00666685     0.0563165 -1.79769e+307 -1.79769e+307
        0.064 -1.79769e+307    0.00232311     -0.118028 -1.79769e+307 -1.79769e+307
        0.066 -1.79769e+307    0.00710592     0.0800851 -1.79769e+307 -1.79769e+307
        0.068 -1.79769e+307    0.00212412     0.0559484 -1.79769e+307 -1.79769e+307
         0.07 -1.79769e+307    0.00565439     0.0440345 -1.79769e+307 -1.79769e+307
        0.072 -1.79769e+307     0.0209604     0.0407841 -1.79769e+307 -1.79769e+307
        0.074 -1.79769e+307     0.0242458     0.0203145 -1.79769e+307 -1.79769e+307
        0.076 -1.79769e+307    -0.0738524     0.0256627 -1.79769e+307 -1.79769e+307
        0.078 -1.79769e+307    -0.0907467       0.02431 -1.79769e+307 -1.79769e+307
         0.08 -1.79769e+307     0.0428025   -0.00785933 -1.79769e+307 -1.79769e+307
        0.082 -1.79769e+307     0.0196015    -0.0285637 -1.79769e+307 -1.79769e+307
        0.084 -1.79769e+307   -0.00601207  -0.000706755 -1.79769e+307 -1.79769e+307
        0.086 -1.79769e+307    0.00464371    0.00303486 -1.79769e+307 -1.79769e+307
        0.088 -1.79769e+307      0.016397    -0.0145172 -1.79769e+307 -1.79769e+307
         0.09 -1.79769e+307    0.00640111      -0.01092 -1.79769e+307 -1.79769e+307
        0.092 -1.79769e+307    0.00492084   -0.00422626 -1.79769e+307 -1.79769e+307
        0.094 -1.79769e+307     0.0112199   -0.00876029 -1.79769e+307 -1.79769e+307
        0.096 -1.79769e+307     0.0100493   -0.00935552 -1.79769e+307 -1.79769e+307
        0.098 -1.79769e+307    0.00805376   -0.00596799 -1.79769e+307 -1.79769e+307
          0.1 -1.79769e+307     0.0102201   -0.00631603 -1.79769e+307 -1.79769e+307
        0.102 -1.79769e+307     0.0109471   -0.00743998 -1.79769e+307 -1.79769e+307
        0.104 -1.79769e+307     0.0101115   -0.00626961 -1.79769e+307 -1.79769e+307
        0.106 -1.79769e+307     0.0105767   -0.00565178 -1.79769e+307 -1.79769e+307
        0.108 -1.79769e+307     0.0109315   -0.00628299 -1.79769e+307 -1.79769e+307
         0.11 -1.79769e+307      0.010553   -0.00621336 -1.79769e+307 -1.79769e+307
        0.112 -1.79769e+307     0.0107203   -0.00579176 -1.79769e+307 -1.79769e+307
        0.114 -1.79769e+307     0.0106759    -0.0059408 -1.79769e+307 -1.79769e+307
        0.116 -1.79769e+307      0.010273   -0.00618191 -1.79769e+307 -1.79769e+307
        0.118 -1.79769e+307     0.0104608   -0.00612566 -1.79769e+307 -1.79769e+307
         0.12 -1.79769e+307     0.0105535   -0.00603876 -1.79769e+307 -1.79769e+307
        0.122 -1.79769e+307     0.0099392   -0.00619098 -1.79769e+307 -1.79769e+307
        0.124 -1.79769e+307    0.00990524   -0.00641333 -1.79769e+307 -1.79769e+307
        0.126 -1.79769e+307     0.0103856   -0.00630831 -1.79769e+307 -1.79769e+307
        0.128 -1.79769e+307     0.0100717   -0.00613143 -1.79769e+307 -1.79769e+307
         0.13 -1.79769e+307    0.00939896   -0.00641642 -1.79769e+307 -1.79769e+307
        0.132 -1.79769e+307    0.00963597    -0.0067577 -1.79769e+307 -1.79769e+307
        0.134 -1.79769e+307     0.0100983   -0.00648347 -1.79769e+307 -1.79769e+307
        0.136 -1.79769e+307    0.00965442   -0.00619917 -1.79769e+307 -1.79769e+307
        0.138 -1.79769e+307    0.00915396   -0.00658994 -1.79769e+307 -1.79769e+307
         0.14 -1.79769e+307    0.00945184   -0.00692667 -1.79769e+307 -1.79769e+307
        0.142 -1.79769e+307    0.00976529   -0.00656466 -1.79769e+307 -1.79769e+307
        0.144 -1.79769e+307    0.00937499   -0.00627109 -1.79769e+307 -1.79769e+307
        0.146 -1.79769e+307      0.009149   -0.00665028 -1.79769e+307 -1.79769e+307
        0.148 -1.79769e+307    0.00937939    -0.0068984 -1.79769e+307 -1.79769e+307
         0.15 -1.79769e+307    0.00940226   -0.00657657 -1.79769e+307 -1.79769e+307
        0.152 -1.79769e+307    0.00916184   -0.00637698 -1.79769e+307 -1.79769e+307
        0.154 -1.79769e+307    0.00924387   -0.00665157 -1.79769e+307 -1.79769e+307
        0.156 -1.79769e+307    0.00933978   -0.00677416 -1.79769e+307 -1.79769e+307
        0.158 -1.79769e+307    0.00902888   -0.00658135 -1.79769e+307 -1.79769e+307
         0.16 -1.79769e+307    0.00896112   -0.00653109 -1.79769e+307 -1.79769e+307
        0.162 -1.79769e+307    0.00933559   -0.00664815 -1.79769e+307 -1.79769e+307
        0.164 -1.79769e+307    0.00927474   -0.00662896 -1.79769e+307 -1.79769e+307
        0.166 -1.79769e+307    0.00869188   -0.00660315 -1.79769e+307 -1.79769e+307
        0.168 -1.79769e+307    0.00878066   -0.00671731 -1.79769e+307 -1.79769e+307
         0.17 -1.79769e+307    0.00937349   -0.00666512 -1.79769e+307 -1.79769e+307
        0.172 -1.79769e+307    0.00915812   -0.00649669 -1.79769e+307 -1.79769e+307
        0.174 -1.79769e+307    0.00843767   -0.00663235 -1.79769e+307 -1.79769e+307
        0.176 -1.79769e+307    0.00864193   -0.00690267 -1.79769e+307 -1.79769e+307
        0.178 -1.79769e+307    0.00932023   -0.00670439 -1.79769e+307 -1.79769e+307
         0.18 -1.79769e+307    0.00898349   -0.00640178 -1.79769e+307 -1.79769e+307
        0.182 -1.79769e+307    0.00829331   -0.00667071 -1.79769e+307 -1.79769e+307
        0.184 -1.79769e+307    0.00855434   -0.00704836 -1.79769e+307 -1.79769e+307
        0.186 -1.79769e+307    0.00915572   -0.00675109 -1.79769e+307 -1.79769e+307
        0.188 -1.79769e+307    0.00877218   -0.00636729 -1.79769e+307 -1.79769e+307
         0.19 -1.79769e+307    0.00826171   -0.00670979 -1.79769e+307 -1.79769e+307
        0.192 -1.79769e+307     0.0085238    -0.0071172 -1.79769e+307 -1.79769e+307
        0.194 -1.79769e+307    0.00889383    -0.0067895 -1.79769e+307 -1.79769e+307
        0.196 -1.79769e+307    0.00855709   -0.00640039 -1.79769e+307 -1.79769e+307
        0.198 -1.79769e+307    0.00832471   -0.00673717 -1.79769e+307 -1.79769e+307
          0.2 -1.79769e+307     0.0085398   -0.00709335 -1.79769e+307 -1.79769e+307
        0.202 -1.79769e+307    0.00858558   -0.00680889 -1.79769e+307 -1.79769e+307
        0.204 -1.79769e+307    0.00835214   -0.00649694 -1.79769e+307 -1.79769e+307
        0.206 -1.79769e+307    0.00843985   -0.00675395 -1.79769e+307 -1.79769e+307
        0.208 -1.79769e+307    0.00858072   -0.00699098 -1.79769e+307 -1.79769e+307
         0.21 -1.79769e+307    0.00828574    -0.0068039 -1.79769e+307 -1.79769e+307
        0.212 -1.79769e+307     0.0081649   -0.00663956 -1.79769e+307 -1.79769e+307
        0.214 -1.79769e+307    0.00855583   -0.00677467 -1.79769e+307 -1.79769e+307
        0.216 -1.79769e+307    0.00861933   -0.00684574 -1.79769e+307 -1.79769e+307
        0.218 -1.79769e+307      0.008037   -0.00676991 -1.79769e+307 -1.79769e+307
         0.22 -1.79769e+307    0.00801129    -0.0068056 -1.79769e+307 -1.79769e+307
        0.222 -1.79769e+307    0.00863138   -0.00681909 -1.79769e+307 -1.79769e+307
        0.224 -1.79769e+307    0.00861887   -0.00669318 -1.79769e+307 -1.79769e+307
        0.226 -1.79769e+307    0.00786824   -0.00671797 -1.79769e+307 -1.79769e+307
        0.228 -1.79769e+307    0.00790944    -0.0069648 -1.79769e+307 -1.79769e+307
         0.23 -1.79769e+307     0.0086369   -0.00688752 -1.79769e+307 -1.79769e+307
        0.232 -1.79769e+307    0.00854673   -0.00656653 -1.79769e+307 -1.79769e+307
        0.234 -1.79769e+307    0.00779433   -0.00666666 -1.79769e+307 -1.79769e+307
        0.236 -1.79769e+307    0.00787962   -0.00708254 -1.79769e+307 -1.79769e+307
        0.238 -1.79769e+307    0.00855839   -0.00695664 -1.79769e+307 -1.79769e+307
         0.24 -1.79769e+307    0.00839877   -0.00649262 -1.79769e+307 -1.79769e+307
        0.242 -1.79769e+307    0.00780841    -0.0066302 -1.79769e+307 -1.79769e+307
        0.244 -1.79769e+307    0.00792874   -0.00712993 -1.79769e+307 -1.79769e+307
        0.246 -1.79769e+307    0.00840656   -0.00699405 -1.79769e+307 -1.79769e+307
        0.248 -1.79769e+307    0.00820103   -0.00648774 -1.79769e+307 -1.79769e+307
         0.25 -1.79769e+307    0.00788612   -0.00661682 -1.79769e+307 -1.79769e+307
        0.252 -1.79769e+307    0.00804555   -0.00709468 -1.79769e+307 -1.79769e+307
        0.254 -1.79769e+307    0.00821497   -0.00698295 -1.79769e+307 -1.79769e+307
        0.256 -1.79769e+307    0.00797608   -0.00654888 -1.79769e+307 -1.79769e+307
        0.258 -1.79769e+307     0.0079865   -0.00663661 -1.79769e+307 -1.79769e+307
         0.26 -1.79769e+307     0.0082002   -0.00699334 -1.79769e+307 -1.79769e+307
        0.262 -1.79769e+307    0.00802688   -0.00692438 -1.79769e+307 -1.79769e+307
        0.264 -1.79769e+307    0.00774916   -0.00665106 -1.79769e+307 -1.79769e+307
        0.266 -1.79769e+307    0.00806957    -0.0067029 -1.79769e+307 -1.79769e+307
        0.268 -1.79769e+307    0.00834785   -0.00686598 -1.79769e+307 -1.79769e+307
         0.27 -1.79769e+307    0.00787035   -0.00681948 -1.79769e+307 -1.79769e+307
        0.272 -1.79769e+307     0.0075624   -0.00676914 -1.79769e+307 -1.79769e+307
        0.274 -1.79769e+307    0.00810842   -0.00681291 -1.79769e+307 -1.79769e+307
        0.276 -1.79769e+307    0.00843828   -0.00674988 -1.79769e+307 -1.79769e+307
        0.278 -1.79769e+307    0.00776161   -0.00669088 -1.79769e+307 -1.79769e+307
         0.28 -1.79769e+307    0.00744867   -0.00687241 -1.79769e+307 -1.79769e+307
        0.282 -1.79769e+307    0.00810222   -0.00695104 -1.79769e+307 -1.79769e+307
        0.284 -1.79769e+307    0.00843007   -0.00666959 -1.79769e+307 -1.79769e+307
        0.286 -1.79769e+307    0.00770307   -0.00657001 -1.79769e+307 -1.79769e+307
        0.288 -1.79769e+307    0.00743485   -0.00693793 -1.79769e+307 -1.79769e+307
         0.29 -1.79769e+307    0.00806516   -0.00707208 -1.79769e+307 -1.79769e+307
        0.292 -1.79769e+307    0.00830164   -0.00663561 -1.79769e+307 -1.79769e+307
        0.294 -1.79769e+307    0.00768518   -0.00648461 -1.79769e+307 -1.79769e+307
        0.296 -1.79769e+307    0.00752361   -0.00695336 -1.79769e+307 -1.79769e+307
        0.298 -1.79769e+307    0.00801376   -0.00713411 -1.79769e+307 -1.79769e+307
          0.3 -1.79769e+307    0.00808111    -0.0066454 -1.79769e+307 -1.79769e+307
        0.302 -1.79769e+307    0.00768752    -0.0064591 -1.79769e+307 -1.79769e+307
        0.304 -1.79769e+307       0.00769   -0.00691706 -1.79769e+307 -1.79769e+307
        0.306 -1.79769e+307    0.00796917   -0.00711383 -1.79769e+307 -1.79769e+307
        0.308 -1.79769e+307    0.00781685   -0.00668739 -1.79769e+307 -1.79769e+307
         0.31 -1.79769e+307    0.00768567   -0.00649965 -1.79769e+307 -1.79769e+307
        0.312 -1.79769e+307    0.00789561   -0.00685352 -1.79769e+307 -1.79769e+307
        0.314 -1.79769e+307      0.007935   -0.00701581 -1.79769e+307 -1.79769e+307
        0.316 -1.79769e+307    0.00755868    -0.0067329 -1.79769e+307 -1.79769e+307
        0.318 -1.79769e+307    0.00765866   -0.00660769 -1.79769e+307 -1.79769e+307
         0.32 -1.79769e+307    0.00808943   -0.00679856 -1.79769e+307 -1.79769e+307
        0.322 -1.79769e+307    0.00791797   -0.00686036 -1.79769e+307 -1.79769e+307
        0.324 -1.79769e+307    0.00735536   -0.00676074 -1.79769e+307 -1.79769e+307
        0.326 -1.79769e+307    0.00760576   -0.00676547 -1.79769e+307 -1.79769e+307
        0.328 -1.79769e+307    0.00822007   -0.00677849 -1.79769e+307 -1.79769e+307
         0.33 -1.79769e+307    0.00790641    -0.0066854 -1.79769e+307 -1.79769e+307
        0.332 -1.79769e+307    0.00723956   -0.00675463 -1.79769e+307 -1.79769e+307
        0.334 -1.79769e+307    0.00756294   -0.00693691 -1.79769e+307 -1.79769e+307
        0.336 -1.79769e+307    0.00824916   -0.00679644 -1.79769e+307 -1.79769e+307
        0.338 -1.79769e+307    0.00787402   -0.00653587 -1.79769e+307 -1.79769e+307
         0.34 -1.79769e+307    0.00722883   -0.00671612 -1.79769e+307 -1.79769e+307
        0.342 -1.79769e+307    0.00755843   -0.00707076 -1.79769e+307 -1.79769e+307
        0.344 -1.79769e+307    0.00816877    -0.0068391 -1.79769e+307 -1.79769e+307
        0.346 -1.79769e+307    0.00780248   -0.00644161 -1.79769e+307 -1.79769e+307
        0.348 -1.79769e+307    0.00731853   -0.00666936 -1.79769e+307 -1.79769e+307
         0.35 -1.79769e+307    0.00761039   -0.00712207 -1.79769e+307 -1.79769e+307
        0.352 -1.79769e+307    0.00799962   -0.00688438 -1.79769e+307 -1.79769e+307
        0.354 -1.79769e+307    0.00768193   -0.00642036 -1.79769e+307 -1.79769e+307
        0.356 -1.79769e+307    0.00747342   -0.00663057 -1.79769e+307 -1.79769e+307
        0.358 -1.79769e+307    0.00771321   -0.00708006 -1.79769e+307 -1.79769e+307
         0.36 -1.79769e+307    0.00779017    -0.0069042 -1.79769e+307 -1.79769e+307
        0.362 -1.79769e+307     0.0075272   -0.00647464 -1.79769e+307 -1.79769e+307
        0.364 -1.79769e+307    0.00764158   -0.00661884 -1.79769e+307 -1.79769e+307
        0.366 -1.79769e+307    0.00785679    -0.0069651 -1.79769e+307 -1.79769e+307
        0.368 -1.79769e+307    0.00758954   -0.00687041 -1.79769e+307 -1.79769e+307
         0.37 -1.79769e+307    0.00736698   -0.00658764 -1.79769e+307 -1.79769e+307
        0.372 -1.79769e+307    0.00777482   -0.00665173 -1.79769e+307 -1.79769e+307
        0.374 -1.79769e+307    0.00800717   -0.00682621 -1.79769e+307 -1.79769e+307
        0.376 -1.79769e+307    0.00744542   -0.00677541 -1.79769e+307 -1.79769e+307
        0.378 -1.79769e+307    0.00722902   -0.00672066 -1.79769e+307 -1.79769e+307
         0.38 -1.79769e+307    0.00784546   -0.00674504 -1.79769e+307 -1.79769e+307
        0.382 -1.79769e+307    0.00810476   -0.00669807 -1.79769e+307 -1.79769e+307
        0.384 -1.79769e+307    0.00737293   -0.00664613 -1.79769e+307 -1.79769e+307
        0.386 -1.79769e+307    0.00715072   -0.00682612 -1.79769e+307 -1.79769e+307
        0.388 -1.79769e+307    0.00785395   -0.00688575 -1.79769e+307 -1.79769e+307
         0.39 -1.79769e+307    0.00810456    -0.0066035 -1.79769e+307 -1.79769e+307
        0.392 -1.79769e+307    0.00736432   -0.00652019 -1.79769e+307 -1.79769e+307
        0.394 -1.79769e+307    0.00716388    -0.0068821 -1.79769e+307 -1.79769e+307
        0.396 -1.79769e+307    0.00782185   -0.00701478 -1.79769e+307 -1.79769e+307
        0.398 -1.79769e+307    0.00799287   -0.00656767 -1.79769e+307 -1.79769e+307
          0.4 -1.79769e+307    0.00739036   -0.00642277 -1.79769e+307 -1.79769e+307
        0.402 -1.79769e+307    0.00728502   -0.00688438 -1.79769e+307 -1.79769e+307
        0.404 -1.79769e+307    0.00777377   -0.00707439 -1.79769e+307 -1.79769e+307
        0.406 -1.79769e+307     0.0077923   -0.00658914 -1.79769e+307 -1.79769e+307
        0.408 -1.79769e+307    0.00742611   -0.00638091 -1.79769e+307 -1.79769e+307
         0.41 -1.79769e+307    0.00748752   -0.00683697 -1.79769e+307 -1.79769e+307
        0.412 -1.79769e+307     0.0077397   -0.00704146 -1.79769e+307 -1.79769e+307
        0.414 -1.79769e+307     0.0075459   -0.00664031 -1.79769e+307 -1.79769e+307
        0.416 -1.79769e+307    0.00744509   -0.00642133 -1.79769e+307 -1.79769e+307
        0.418 -1.79769e+307    0.00771434   -0.00675723 -1.79769e+307 -1.79769e+307
         0.42 -1.79769e+307    0.00773442   -0.00693498 -1.79769e+307 -1.79769e+307
        0.422 -1.79769e+307     0.0073081   -0.00668512 -1.79769e+307 -1.79769e+307
        0.424 -1.79769e+307    0.00742492   -0.00654041 -1.79769e+307 -1.79769e+307
        0.426 -1.79769e+307    0.00790917   -0.00669801 -1.79769e+307 -1.79769e+307
        0.428 -1.79769e+307    0.00774754   -0.00677921 -1.79769e+307 -1.79769e+307
         0.43 -1.79769e+307    0.00713224   -0.00669739 -1.79769e+307 -1.79769e+307
        0.432 -1.79769e+307    0.00737661   -0.00670651 -1.79769e+307 -1.79769e+307
        0.434 -1.79769e+307    0.00803241   -0.00670101 -1.79769e+307 -1.79769e+307
        0.436 -1.79769e+307    0.00776174    -0.0066027 -1.79769e+307 -1.79769e+307
        0.438 -1.79769e+307    0.00705698   -0.00666842 -1.79769e+307 -1.79769e+307
         0.44 -1.79769e+307    0.00733818   -0.00686832 -1.79769e+307 -1.79769e+307
        0.442 -1.79769e+307    0.00805826   -0.00675063 -1.79769e+307 -1.79769e+307
        0.444 -1.79769e+307    0.00774696    -0.0064559 -1.79769e+307 -1.79769e+307
        0.446 -1.79769e+307     0.0070856   -0.00660541 -1.79769e+307 -1.79769e+307
        0.448 -1.79769e+307    0.00735641   -0.00698346 -1.79769e+307 -1.79769e+307
         0.45 -1.79769e+307    0.00797672   -0.00681666 -1.79769e+307 -1.79769e+307
        0.452 -1.79769e+307    0.00767593   -0.00637679 -1.79769e+307 -1.79769e+307
        0.454 -1.79769e+307    0.00719764    -0.0065298 -1.79769e+307 -1.79769e+307
        0.456 -1.79769e+307    0.00744491   -0.00701846 -1.79769e+307 -1.79769e+307
        0.458 -1.79769e+307    0.00782245   -0.00687126 -1.79769e+307 -1.79769e+307
         0.46 -1.79769e+307     0.0075397   -0.00637501 -1.79769e+307 -1.79769e+307
        0.462 -1.79769e+307    0.00735956   -0.00648341 -1.79769e+307 -1.79769e+307
        0.464 -1.79769e+307    0.00759356   -0.00695537 -1.79769e+307 -1.79769e+307
        0.466 -1.79769e+307    0.00764984   -0.00688204 -1.79769e+307 -1.79769e+307
        0.468 -1.79769e+307    0.00736769   -0.00644014 -1.79769e+307 -1.79769e+307
         0.47 -1.79769e+307    0.00751387   -0.00648563 -1.79769e+307 -1.79769e+307
        0.472 -1.79769e+307    0.00777573   -0.00683466 -1.79769e+307 -1.79769e+307
        0.474 -1.79769e+307    0.00750131   -0.00681669 -1.79769e+307 -1.79769e+307
        0.476 -1.79769e+307    0.00719656   -0.00655101 -1.79769e+307 -1.79769e+307
        0.478 -1.79769e+307    0.00761006   -0.00655014 -1.79769e+307 -1.79769e+307
         0.48 -1.79769e+307    0.00794877   -0.00671088 -1.79769e+307 -1.79769e+307
        0.482 -1.79769e+307    0.00740924   -0.00668747 -1.79769e+307 -1.79769e+307
        0.484 -1.79769e+307    0.00705881   -0.00666242 -1.79769e+307 -1.79769e+307
        0.486 -1.79769e+307    0.00764221   -0.00668848 -1.79769e+307 -1.79769e+307
        0.488 -1.79769e+307    0.00805459   -0.00661514 -1.79769e+307 -1.79769e+307
         0.49 -1.79769e+307    0.00737703   -0.00654072 -1.79769e+307 -1.79769e+307
        0.492 -1.79769e+307    0.00699681   -0.00672344 -1.79769e+307 -1.79769e+307
        0.494 -1.79769e+307    0.00764206   -0.00685763 -1.79769e+307 -1.79769e+307
        0.496 -1.79769e+307    0.00804897   -0.00656612 -1.79769e+307 -1.79769e+307
        0.498 -1.79769e+307    0.00738116    -0.0063977 -1.79769e+307 -1.79769e+307
          0.5 -1.79769e+307    0.00705347   -0.00673746 -1.79769e+307 -1.79769e+307
        0.502 -1.79769e+307    0.00763067   -0.00697744 -1.79769e+307 -1.79769e+307
        0.504 -1.79769e+307    0.00792586    -0.0065789 -1.79769e+307 -1.79769e+307
        0.506 -1.79769e+307     0.0073864   -0.00629801 -1.79769e+307 -1.79769e+307
        0.508 -1.79769e+307    0.00721599   -0.00670868 -1.79769e+307 -1.79769e+307
         0.51 -1.79769e+307    0.00762831   -0.00701277 -1.79769e+307 -1.79769e+307
        0.512 -1.79769e+307    0.00771245   -0.00662657 -1.79769e+307 -1.79769e+307
        0.514 -1.79769e+307    0.00737807   -0.00628388 -1.79769e+307 -1.79769e+307
        0.516 -1.79769e+307    0.00743121   -0.00664103 -1.79769e+307 -1.79769e+307
        0.518 -1.79769e+307    0.00766465   -0.00696575 -1.79769e+307 -1.79769e+307
         0.52 -1.79769e+307     0.0074694   -0.00666607 -1.79769e+307 -1.79769e+307
        0.522 -1.79769e+307    0.00733568   -0.00636159 -1.79769e+307 -1.79769e+307
        0.524 -1.79769e+307    0.00764396   -0.00658231 -1.79769e+307 -1.79769e+307
        0.526 -1.79769e+307    0.00774384   -0.00683905 -1.79769e+307 -1.79769e+307
        0.528 -1.79769e+307    0.00726381   -0.00667241 -1.79769e+307 -1.79769e+307
         0.53 -1.79769e+307    0.00725564   -0.00649276 -1.79769e+307 -1.79769e+307
        0.532 -1.79769e+307    0.00781515    -0.0065878 -1.79769e+307 -1.79769e+307
        0.534 -1.79769e+307    0.00782705   -0.00666387 -1.79769e+307 -1.79769e+307
        0.536 -1.79769e+307    0.00712897   -0.00662729 -1.79769e+307 -1.79769e+307
        0.538 -1.79769e+307    0.00717274   -0.00665608 -1.79769e+307 -1.79769e+307
         0.54 -1.79769e+307    0.00790601   -0.00665512 -1.79769e+307 -1.79769e+307
        0.542 -1.79769e+307    0.00786872   -0.00651332 -1.79769e+307 -1.79769e+307
        0.544 -1.79769e+307    0.00708153     -0.006537 -1.79769e+307 -1.79769e+307
        0.546 -1.79769e+307    0.00714862    -0.0068011 -1.79769e+307 -1.79769e+307
        0.548 -1.79769e+307    0.00790003   -0.00675902 -1.79769e+307 -1.79769e+307
         0.55 -1.79769e+307    0.00783886   -0.00641173 -1.79769e+307 -1.79769e+307
        0.552 -1.79769e+307    0.00713133   -0.00642909 -1.79769e+307 -1.79769e+307
        0.554 -1.79769e+307    0.00720934   -0.00686764 -1.79769e+307 -1.79769e+307
        0.556 -1.79769e+307    0.00782729    -0.0068641 -1.79769e+307 -1.79769e+307
        0.558 -1.79769e+307     0.0077203   -0.00636852 -1.79769e+307 -1.79769e+307
         0.56 -1.79769e+307    0.00723944   -0.00635047 -1.79769e+307 -1.79769e+307
        0.562 -1.79769e+307    0.00734629   -0.00684921 -1.79769e+307 -1.79769e+307
        0.564 -1.79769e+307     0.0077274   -0.00691521 -1.79769e+307 -1.79769e+307
        0.566 -1.79769e+307     0.0075309   -0.00640455 -1.79769e+307 -1.79769e+307
        0.568 -1.79769e+307    0.00734397    -0.0063183 -1.79769e+307 -1.79769e+307
         0.57 -1.79769e+307    0.00755029   -0.00678012 -1.79769e+307 -1.79769e+307
        0.572 -1.79769e+307    0.00763746   -0.00687495 -1.79769e+307 -1.79769e+307
        0.574 -1.79769e+307     0.0073131   -0.00648819 -1.79769e+307 -1.79769e+307
        0.576 -1.79769e+307    0.00741286   -0.00636461 -1.79769e+307 -1.79769e+307
        0.578 -1.79769e+307    0.00777809   -0.00667811 -1.79769e+307 -1.79769e+307
         0.58 -1.79769e+307    0.00758227   -0.00676313 -1.79769e+307 -1.79769e+307
        0.582 -1.79769e+307    0.00711453   -0.00655971 -1.79769e+307 -1.79769e+307
        0.584 -1.79769e+307     0.0074388   -0.00649835 -1.79769e+307 -1.79769e+307
        0.586 -1.79769e+307    0.00795702   -0.00659247 -1.79769e+307 -1.79769e+307
        0.588 -1.79769e+307    0.00756369   -0.00660582 -1.79769e+307 -1.79769e+307
         0.59 -1.79769e+307    0.00698445   -0.00659838 -1.79769e+307 -1.79769e+307
        0.592 -1.79769e+307    0.00742635   -0.00667553 -1.79769e+307 -1.79769e+307
        0.594 -1.79769e+307    0.00804019   -0.00658099 -1.79769e+307 -1.79769e+307
        0.596 -1.79769e+307    0.00756263   -0.00643151 -1.79769e+307 -1.79769e+307
        0.598 -1.79769e+307    0.00696517   -0.00659952 -1.79769e+307 -1.79769e+307
          0.6 -1.79769e+307    0.00740637   -0.00683493 -1.79769e+307 -1.79769e+307
        0.602 -1.79769e+307    0.00801626   -0.00662121 -1.79769e+307 -1.79769e+307
        0.604 -1.79769e+307    0.00755086   -0.00629846 -1.79769e+307 -1.79769e+307
        0.606 -1.79769e+307    0.00705366   -0.00654683 -1.79769e+307 -1.79769e+307
        0.608 -1.79769e+307    0.00743519   -0.00693457 -1.79769e+307 -1.79769e+307
         0.61 -1.79769e+307    0.00788771   -0.00667703 -1.79769e+307 -1.79769e+307
        0.612 -1.79769e+307    0.00749525   -0.00624416 -1.79769e+307 -1.79769e+307
        0.614 -1.79769e+307    0.00721612   -0.00647491 -1.79769e+307 -1.79769e+307
        0.616 -1.79769e+307    0.00752504   -0.00693812 -1.79769e+307 -1.79769e+307
        0.618 -1.79769e+307     0.0076911   -0.00673024 -1.79769e+307 -1.79769e+307
         0.62 -1.79769e+307    0.00738469   -0.00627055 -1.79769e+307 -1.79769e+307
        0.622 -1.79769e+307    0.00741354   -0.00643425 -1.79769e+307 -1.79769e+307
        0.624 -1.79769e+307    0.00766087   -0.00684476 -1.79769e+307 -1.79769e+307
        0.626 -1.79769e+307      0.007494    -0.0067377 -1.79769e+307 -1.79769e+307
        0.628 -1.79769e+307      0.007248   -0.00636933 -1.79769e+307 -1.79769e+307
         0.63 -1.79769e+307    0.00758225   -0.00643897 -1.79769e+307 -1.79769e+307
        0.632 -1.79769e+307    0.00782026   -0.00671122 -1.79769e+307 -1.79769e+307
        0.634 -1.79769e+307    0.00734871   -0.00666296 -1.79769e+307 -1.79769e+307
        0.636 -1.79769e+307    0.00711249   -0.00650741 -1.79769e+307 -1.79769e+307
        0.638 -1.79769e+307    0.00767391   -0.00651679 -1.79769e+307 -1.79769e+307
         0.64 -1.79769e+307    0.00795886   -0.00657654 -1.79769e+307 -1.79769e+307
        0.642 -1.79769e+307    0.00727257   -0.00654446 -1.79769e+307 -1.79769e+307
        0.644 -1.79769e+307    0.00701433   -0.00662333 -1.79769e+307 -1.79769e+307
        0.646 -1.79769e+307    0.00770199   -0.00667021 -1.79769e+307 -1.79769e+307
        0.648 -1.79769e+307    0.00801353   -0.00647857 -1.79769e+307 -1.79769e+307
         0.65 -1.79769e+307    0.00726699   -0.00640704 -1.79769e+307 -1.79769e+307
        0.652 -1.79769e+307    0.00700753   -0.00668718 -1.79769e+307 -1.79769e+307
        0.654 -1.79769e+307    0.00769229   -0.00682283 -1.79769e+307 -1.79769e+307
        0.656 -1.79769e+307    0.00795303   -0.00644859 -1.79769e+307 -1.79769e+307
        0.658 -1.79769e+307    0.00729405   -0.00627509 -1.79769e+307 -1.79769e+307
         0.66 -1.79769e+307    0.00712185   -0.00669715 -1.79769e+307 -1.79769e+307
        0.662 -1.79769e+307    0.00765947   -0.00691303 -1.79769e+307 -1.79769e+307
        0.664 -1.79769e+307    0.00778355   -0.00647741 -1.79769e+307 -1.79769e+307
        0.666 -1.79769e+307    0.00733096   -0.00620942 -1.79769e+307 -1.79769e+307
        0.668 -1.79769e+307    0.00731546   -0.00664359 -1.79769e+307 -1.79769e+307
         0.67 -1.79769e+307    0.00764571   -0.00692681 -1.79769e+307 -1.79769e+307
        0.672 -1.79769e+307    0.00755082   -0.00653063 -1.79769e+307 -1.79769e+307
        0.674 -1.79769e+307    0.00734217   -0.00623576 -1.79769e+307 -1.79769e+307
        0.676 -1.79769e+307    0.00753918   -0.00656478 -1.79769e+307 -1.79769e+307
        0.678 -1.79769e+307    0.00768308   -0.00684385 -1.79769e+307 -1.79769e+307
         0.68 -1.79769e+307    0.00732207   -0.00657586 -1.79769e+307 -1.79769e+307
        0.682 -1.79769e+307    0.00730335   -0.00633548 -1.79769e+307 -1.79769e+307
        0.684 -1.79769e+307    0.00775125   -0.00652303 -1.79769e+307 -1.79769e+307
        0.686 -1.79769e+307     0.0077449   -0.00668564 -1.79769e+307 -1.79769e+307
        0.688 -1.79769e+307    0.00714188   -0.00658369 -1.79769e+307 -1.79769e+307
         0.69 -1.79769e+307    0.00723145   -0.00649753 -1.79769e+307 -1.79769e+307
        0.692 -1.79769e+307    0.00789598   -0.00654093 -1.79769e+307 -1.79769e+307
        0.694 -1.79769e+307    0.00779821   -0.00652167 -1.79769e+307 -1.79769e+307
        0.696 -1.79769e+307    0.00704576   -0.00652792 -1.79769e+307 -1.79769e+307
        0.698 -1.79769e+307    0.00718416   -0.00667416 -1.79769e+307 -1.79769e+307
          0.7 -1.79769e+307    0.00793795   -0.00661712 -1.79769e+307 -1.79769e+307
        0.702 -1.79769e+307    0.00781186   -0.00638386 -1.79769e+307 -1.79769e+307
        0.704 -1.79769e+307    0.00705878   -0.00643927 -1.79769e+307 -1.79769e+307
        0.706 -1.79769e+307    0.00719417   -0.00678605 -1.79769e+307 -1.79769e+307
        0.708 -1.79769e+307    0.00789189   -0.00673303 -1.79769e+307 -1.79769e+307