# Probe 0 (0.181 7.37 0.5)
# Probe 1 (0.819 0.63 0.5)
# Probe 2 (0.181 0.63 0.5)
# Probe 3 (0.819 7.37 0.5)
# Probe 4 (0.181 4 0.5)
#       Probe             0             1             2             3             4
#        Time
        0.002             (-1.79769e+307 -1.79769e+307 -1.79769e+307)             (-0.607566 -0.220931 0)             (0.607582 -0.22092 0)             (-1.79769e+307 -1.79769e+307 -1.79769e+307)             (-1.79769e+307 -1.79769e+307 -1.79769e+307)
        0.004             (-1.79769e+307 -1.79769e+307 -1.79769e+307)             (-0.944732 -0.338305 0)             (0.944797 -0.338212 0)             (-1.79769e+307 -1.79769e+307 -1.79769e+307)             (-1.79769e+307 -1.79769e+307 -1.79769e+307)
        0.006             (-1.79769e+307 -1.79769e+307 -1.79769e+307)             (-1.71866 -0.513146 0)             (1.71913 -0.512456 0)             (-1.79769e+307 -1.79769e+307 -1.79769e+307)             (-1.79769e+307 -1.79769e+307 -1.79769e+307)
        0.008             (-1.79769e+307 -1.79769e+307 -1.79769e+307)             (-3.46742 -0.734412 0)             (3.46969 -0.730283 0)             (-1.79769e+307 -1.79769e+307 -1.79769e+307)             (-1.79769e+307 -1.79769e+307 -1.79769e+307)
         0.01             (-1.79769e+307 -1.79769e+307 -1.79769e+307)             (-7.49835 -0.845067 0)             (7.50176 -0.837915 0)             (-1.79769e+307 -1.79769e+307 -1.79769e+307)             (-1.79769e+307 -1.79769e+307 -1.79769e+307)
        0.012             (-1.79769e+307 -1.79769e+307 -1.79769e+307)             (-17.3572 -0.048242 0)             (17.3612 -0.03804 0)             (-1.79769e+307 -1.79769e+307 -1.79769e+307)             (-1.79769e+307 -1.79769e+307 -1.79769e+307)
        0.014             (-1.79769e+307 -1.79769e+307 -1.79769e+307)             (-39.7229 5.36028 0)             (39.7332 5.37026 0)             (-1.79769e+307 -1.79769e+307 -1.79769e+307)             (-1.79769e+307 -1.79769e+307 -1.79769e+307)
        0.016             (-1.79769e+307 -1.79769e+307 -1.79769e+307)             (-38.541 7.65365 0)             (38.6335 7.6634 0)             (-1.79769e+307 -1.79769e+307 -1.79769e+307)             (-1.79769e+307 -1.79769e+307 -1.79769e+307)
        0.018             (-1.79769e+307 -1.79769e+307 -1.79769e+307)             (8.3001 -36.1054 0)             (-8.17119 -36.0874 0)             (-1.79769e+307 -1.79769e+307 -1.79769e+307)             (-1.79769e+307 -1.79769e+307 -1.79769e+307)
         0.02             (-1.79769e+307 -1.79769e+307 -1.79769e+307)             (11.2795 -54.424 0)             (-11.1 -54.4567 0)             (-1.79769e+307 -1.79769e+307 -1.79769e+307)             (-1.79769e+307 -1.79769e+307 -1.79769e+307)
        0.022             (-1.79769e+307 -1.79769e+307 -1.79769e+307)             (38.0205 -77.9067 0)             (-37.7273 -77.9299 0)             (-1.79769e+307 -1.79769e+307 -1.79769e+307)             (-1.79769e+307 -1.79769e+307 -1.79769e+307)
        0.024             (-1.79769e+307 -1.79769e+307 -1.79769e+307)             (23.1841 -115.803 0)             (-22.8418 -115.683 0)             (-1.79769e+307 -1.79769e+307 -1.79769e+307)             (-1.79769e+307 -1.79769e+307 -1.79769e+307)
        0.026             (-1.79769e+307 -1.79769e+307 -1.79769e+307)             (-22.5715 -108.916 0)             (22.917 -108.464 0)             (-1.79769e+307 -1.79769e+307 -1.79769e+307)             (-1.79769e+307 -1.79769e+307 -1.79769e+307)
        0.028             (-1.79769e+307 -1.79769e+307 -1.79769e+307)             (-34.2903 -73.9289 0)             (35.2912 -73.3847 0)             (-1.79769e+307 -1.79769e+307 -1.79769e+307)             (-1.79769e+307 -1.79769e+307 -1.79769e+307)
         0.03             (-1.79769e+307 -1.79769e+307 -1.79769e+307)             (-9.36629 -69.3529 0)             (10.4954 -69.8725 0)             (-1.79769e+307 -1.79769e+307 -1.79769e+307)             (-1.79769e+307 -1.79769e+307 -1.79769e+307)
        0.032             (-1.79769e+307 -1.79769e+307 -1.79769e+307)             (-28.8659 -78.7968 0)             (33.2443 -78.8275 0)             (-1.79769e+307 -1.79769e+307 -1.79769e+307)             (-1.79769e+307 -1.79769e+307 -1.79769e+307)
        0.034             (-1.79769e+307 -1.79769e+307 -1.79769e+307)             (-51.6149 -67.5024 0)             (61.9642 -65.2408 0)             (-1.79769e+307 -1.79769e+307 -1.79769e+307)             (-1.79769e+307 -1.79769e+307 -1.79769e+307)
        0.036             (-1.79769e+307 -1.79769e+307 -1.79769e+307)             (-62.9897 -66.9344 0)             (94.597 -64.525 0)             (-1.79769e+307 -1.79769e+307 -1.79769e+307)             (-1.79769e+307 -1.79769e+307 -1.79769e+307)
        0.038             (-1.79769e+307 -1.79769e+307 -1.79769e+307)             (-46.722 -78.6276 0)             (121.114 -58.571 0)             (-1.79769e+307 -1.79769e+307 -1.79769e+307)             (-1.79769e+307 -1.79769e+307 -1.79769e+307)
         0.04             (-1.79769e+307 -1.79769e+307 -1.79769e+307)             (-30.0816 -91.3352 0)             (174.191 -30.1449 0)             (-1.79769e+307 -1.79769e+307 -1.79769e+307)             (-1.79769e+307 -1.79769e+307 -1.79769e+307)
        0.042             (-1.79769e+307 -1.79769e+307 -1.79769e+307)             (10.2147 -92.8866 0)             (262.332 22.5266 0)             (-1.79769e+307 -1.79769e+307 -1.79769e+307)             (-1.79769e+307 -1.79769e+307 -1.79769e+307)
        0.044             (-1.79769e+307 -1.79769e+307 -1.79769e+307)             (156.854 -65.9267 0)             (284.538 134.519 0)             (-1.79769e+307 -1.79769e+307 -1.79769e+307)             (-1.79769e+307 -1.79769e+307 -1.79769e+307)
        0.046             (-1.79769e+307 -1.79769e+307 -1.79769e+307)             (240.765 -95.3683 0)             (229.716 149.167 0)             (-1.79769e+307 -1.79769e+307 -1.79769e+307)             (-1.79769e+307 -1.79769e+307 -1.79769e+307)
        0.048             (-1.79769e+307 -1.79769e+307 -1.79769e+307)             (278.361 -119.936 0)             (202.606 135.073 0)             (-1.79769e+307 -1.79769e+307 -1.79769e+307)             (-1.79769e+307 -1.79769e+307 -1.79769e+307)
         0.05             (-1.79769e+307 -1.79769e+307 -1.79769e+307)             (293.784 -133.803 0)             (120.585 90.9334 0)             (-1.79769e+307 -1.79769e+307 -1.79769e+307)             (-1.79769e+307 -1.79769e+307 -1.79769e+307)
        0.052             (-1.79769e+307 -1.79769e+307 -1.79769e+307)             (305.877 -146.779 0)             (-56.556 27.2985 0)             (-1.79769e+307 -1.79769e+307 -1.79769e+307)             (-1.79769e+307 -1.79769e+307 -1.79769e+307)
        0.054             (-1.79769e+307 -1.79769e+307 -1.79769e+307)             (293.318 -139.735 0)             (-34.0245 51.0069 0)             (-1.79769e+307 -1.79769e+307 -1.79769e+307)             (-1.79769e+307 -1.79769e+307 -1.79769e+307)
        0.056             (-1.79769e+307 -1.79769e+307 -1.79769e+307)             (188.303 -237.551 0)             (37.1869 155.246 0)             (-1.79769e+307 -1.79769e+307 -1.79769e+307)             (-1.79769e+307 -1.79769e+307 -1.79769e+307)
        0.058             (-1.79769e+307 -1.79769e+307 -1.79769e+307)             (68.0636 -345.645 0)             (30.069 187.28 0)             (-1.79769e+307 -1.79769e+307 -1.79769e+307)             (-1.79769e+307 -1.79769e+307 -1.79769e+307)
         0.06             (-1.79769e+307 -1.79769e+307 -1.79769e+307)             (20.4576 -280.774 0)             (39.068 104.164 0)             (-1.79769e+307 -1.79769e+307 -1.79769e+307)             (-1.79769e+307 -1.79769e+307 -1.79769e+307)
        0.062             (-1.79769e+307 -1.79769e+307 -1.79769e+307)             (43.9719 -203.622 0)             (184.853 3.19091 0)             (-1.79769e+307 -1.79769e+307 -1.79769e+307)             (-1.79769e+307 -1.79769e+307 -1.79769e+307)
        0.064             (-1.79769e+307 -1.79769e+307 -1.79769e+307)             (72.993 -200.862 0)             (351.374 51.28 0)             (-1.79769e+307 -1.79769e+307 -1.79769e+307)             (-1.79769e+307 -1.79769e+307 -1.79769e+307)
        0.066             (-1.79769e+307 -1.79769e+307 -1.79769e+307)             (82.1511 -210.778 0)             (241.438 145.107 0)             (-1.79769e+307 -1.79769e+307 -1.79769e+307)             (-1.79769e+307 -1.79769e+307 -1.79769e+307)
        0.068             (-1.79769e+307 -1.79769e+307 -1.79769e+307)             (116.611 -251.646 0)             (229.382 241.997 0)             (-1.79769e+307 -1.79769e+307 -1.79769e+307)             (-1.79769e+307 -1.79769e+307 -1.79769e+307)
         0.07             (-1.79769e+307 -1.79769e+307 -1.79769e+307)             (136.893 -291.571 0)             (203.555 285.21 0)             (-1.79769e+307 -1.79769e+307 -1.79769e+307)             (-1.79769e+307 -1.79769e+307 -1.79769e+307)
        0.072             (-1.79769e+307 -1.79769e+307 -1.79769e+307)             (142.305 -297.232 0)             (171.636 294.797 0)             (-1.79769e+307 -1.79769e+307 -1.79769e+307)             (-1.79769e+307 -1.79769e+307 -1.79769e+307)
        0.074             (-1.79769e+307 -1.79769e+307 -1.79769e+307)             (152.06 -272.104 0)             (135.635 295.664 0)             (-1.79769e+307 -1.79769e+307 -1.79769e+307)             (-1.79769e+307 -1.79769e+307 -1.79769e+307)
        0.076             (-1.79769e+307 -1.79769e+307 -1.79769e+307)             (240.177 -258.087 0)             (145.284 307.358 0)             (-1.79769e+307 -1.79769e+307 -1.79769e+307)             (-1.79769e+307 -1.79769e+307 -1.79769e+307)
        0.078             (-1.79769e+307 -1.79769e+307 -1.79769e+307)             (114.797 -376.393 0)             (137.837 315.426 0)             (-1.79769e+307 -1.79769e+307 -1.79769e+307)             (-1.79769e+307 -1.79769e+307 -1.79769e+307)
         0.08             (-1.79769e+307 -1.79769e+307 -1.79769e+307)             (72.9603 -316.95 0)             (125.897 313.943 0)             (-1.79769e+307 -1.79769e+307 -1.79769e+307)             (-1.79769e+307 -1.79769e+307 -1.79769e+307)
        0.082             (-1.79769e+307 -1.79769e+307 -1.79769e+307)             (101.24 -291.043 0)             (121.028 316.86 0)             (-1.79769e+307 -1.79769e+307 -1.79769e+307)             (-1.79769e+307 -1.79769e+307 -1.79769e+307)
        0.084             (-1.79769e+307 -1.79769e+307 -1.79769e+307)             (111.727 -298.019 0)             (123.927 320.728 0)             (-1.79769e+307 -1.79769e+307 -1.79769e+307)             (-1.79769e+307 -1.79769e+307 -1.79769e+307)
        0.086             (-1.79769e+307 -1.79769e+307 -1.79769e+307)             (111.044 -309.914 0)             (124.544 318.046 0)             (-1.79769e+307 -1.79769e+307 -1.79769e+307)             (-1.79769e+307 -1.79769e+307 -1.79769e+307)
        0.088             (-1.79769e+307 -1.79769e+307 -1.79769e+307)             (107.25 -310.9 0)             (117.652 314.511 0)             (-1.79769e+307 -1.79769e+307 -1.79769e+307)             (-1.79769e+307 -1.79769e+307 -1.79769e+307)
         0.09             (-1.79769e+307 -1.79769e+307 -1.79769e+307)             (107.08 -307.068 0)             (116.559 316.974 0)             (-1.79769e+307 -1.79769e+307 -1.79769e+307)             (-1.79769e+307 -1.79769e+307 -1.79769e+307)
        0.092             (-1.79769e+307 -1.79769e+307 -1.79769e+307)             (110.083 -307.181 0)             (121.725 320.527 0)             (-1.79769e+307 -1.79769e+307 -1.79769e+307)             (-1.79769e+307 -1.79769e+307 -1.79769e+307)
        0.094             (-1.79769e+307 -1.79769e+307 -1.79769e+307)             (109.008 -310.613 0)             (120.141 320.31 0)             (-1.79769e+307 -1.79769e+307 -1.79769e+307)             (-1.79769e+307 -1.79769e+307 -1.79769e+307)
        0.096             (-1.79769e+307 -1.79769e+307 -1.79769e+307)             (108.107 -311.673 0)             (116.436 318.553 0)             (-1.79769e+307 -1.79769e+307 -1.79769e+307)             (-1.79769e+307 -1.79769e+307 -1.79769e+307)
        0.098             (-1.79769e+307 -1.79769e+307 -1.79769e+307)             (110.241 -310.686 0)             (116.397 319.821 0)             (-1.79769e+307 -1.79769e+307 -1.79769e+307)             (-1.79769e+307 -1.79769e+307 -1.79769e+307)
          0.1             (-1.79769e+307 -1.79769e+307 -1.79769e+307)             (111.843 -312.604 0)             (116.589 322.236 0)             (-1.79769e+307 -1.79769e+307 -1.79769e+307)             (-1.79769e+307 -1.79769e+307 -1.79769e+307)
        0.102             (-1.79769e+307 -1.79769e+307 -1.79769e+307)             (111.402 -314.77 0)             (115.146 322.186 0)             (-1.79769e+307 -1.79769e+307 -1.79769e+307)             (-1.79769e+307 -1.79769e+307 -1.79769e+307)
        0.104             (-1.79769e+307 -1.79769e+307 -1.79769e+307)             (111.41 -315.164 0)             (114.72 322.66 0)             (-1.79769e+307 -1.79769e+307 -1.79769e+307)             (-1.79769e+307 -1.79769e+307 -1.79769e+307)
        0.106             (-1.79769e+307 -1.79769e+307 -1.79769e+307)             (113.177 -316.369 0)             (115.294 324.834 0)             (-1.79769e+307 -1.79769e+307 -1.79769e+307)             (-1.79769e+307 -1.79769e+307 -1.79769e+307)
        0.108             (-1.79769e+307 -1.79769e+307 -1.79769e+307)             (114.638 -318.251 0)             (115.513 326.091 0)             (-1.79769e+307 -1.79769e+307 -1.79769e+307)             (-1.79769e+307 -1.79769e+307 -1.79769e+307)
         0.11             (-1.79769e+307 -1.79769e+307 -1.79769e+307)             (113.452 -319.126 0)             (115.729 326.869 0)             (-1.79769e+307 -1.79769e+307 -1.79769e+307)             (-1.79769e+307 -1.79769e+307 -1.79769e+307)
        0.112             (-1.79769e+307 -1.79769e+307 -1.79769e+307)             (113.828 -320.242 0)             (116.113 328.499 0)             (-1.79769e+307 -1.79769e+307 -1.79769e+307)             (-1.79769e+307 -1.79769e+307 -1.79769e+307)
        0.114             (-1.79769e+307 -1.79769e+307 -1.79769e+307)             (116.561 -322.161 0)             (116.473 329.979 0)             (-1.79769e+307 -1.79769e+307 -1.79769e+307)             (-1.79769e+307 -1.79769e+307 -1.79769e+307)
        0.116             (-1.79769e+307 -1.79769e+307 -1.79769e+307)             (116.808 -323.339 0)             (117.217 331.249 0)             (-1.79769e+307 -1.79769e+307 -1.79769e+307)             (-1.79769e+307 -1.79769e+307 -1.79769e+307)
        0.118             (-1.79769e+307 -1.79769e+307 -1.79769e+307)             (115.243 -324.167 0)             (117.911 332.868 0)             (-1.79769e+307 -1.79769e+307 -1.79769e+307)             (-1.79769e+307 -1.79769e+307 -1.79769e+307)
         0.12             (-1.79769e+307 -1.79769e+307 -1.79769e+307)             (117.13 -326.021 0)             (117.921 334.17 0)             (-1.79769e+307 -1.79769e+307 -1.79769e+307)             (-1.79769e+307 -1.79769e+307 -1.79769e+307)
        0.122             (-1.79769e+307 -1.79769e+307 -1.79769e+307)             (119.837 -327.652 0)             (118.016 335.249 0)             (-1.79769e+307 -1.79769e+307 -1.79769e+307)             (-1.79769e+307 -1.79769e+307 -1.79769e+307)
        0.124             (-1.79769e+307 -1.79769e+307 -1.79769e+307)             (118.339 -328.457 0)             (118.918 336.879 0)             (-1.79769e+307 -1.79769e+307 -1.79769e+307)             (-1.79769e+307 -1.79769e+307 -1.79769e+307)
        0.126             (-1.79769e+307 -1.79769e+307 -1.79769e+307)             (117.713 -329.947 0)             (119.937 338.594 0)             (-1.79769e+307 -1.79769e+307 -1.79769e+307)             (-1.79769e+307 -1.79769e+307 -1.79769e+307)
        0.128             (-1.79769e+307 -1.79769e+307 -1.79769e+307)             (120.502 -331.978 0)             (120.273 339.765 0)             (-1.79769e+307 -1.79769e+307 -1.79769e+307)             (-1.79769e+307 -1.79769e+307 -1.79769e+307)
         0.13             (-1.79769e+307 -1.79769e+307 -1.79769e+307)             (121.798 -332.757 0)             (120.235 340.768 0)             (-1.79769e+307 -1.79769e+307 -1.79769e+307)             (-1.79769e+307 -1.79769e+307 -1.79769e+307)
        0.132             (-1.79769e+307 -1.79769e+307 -1.79769e+307)             (119.635 -333.465 0)             (120.722 342.252 0)             (-1.79769e+307 -1.79769e+307 -1.79769e+307)             (-1.79769e+307 -1.79769e+307 -1.79769e+307)
        0.134             (-1.79769e+307 -1.79769e+307 -1.79769e+307)             (120.486 -335.659 0)             (121.894 343.904 0)             (-1.79769e+307 -1.79769e+307 -1.79769e+307)             (-1.79769e+307 -1.79769e+307 -1.79769e+307)
        0.136             (-1.79769e+307 -1.79769e+307 -1.79769e+307)             (123.732 -337.296 0)             (122.664 345.146 0)             (-1.79769e+307 -1.79769e+307 -1.79769e+307)             (-1.79769e+307 -1.79769e+307 -1.79769e+307)
        0.138             (-1.79769e+307 -1.79769e+307 -1.79769e+307)             (123.172 -337.664 0)             (122.477 346.034 0)             (-1.79769e+307 -1.79769e+307 -1.79769e+307)             (-1.79769e+307 -1.79769e+307 -1.79769e+307)
         0.14             (-1.79769e+307 -1.79769e+307 -1.79769e+307)             (121.263 -338.624 0)             (122.415 347.202 0)             (-1.79769e+307 -1.79769e+307 -1.79769e+307)             (-1.79769e+307 -1.79769e+307 -1.79769e+307)
        0.142             (-1.79769e+307 -1.79769e+307 -1.79769e+307)             (123.544 -340.954 0)             (123.451 348.766 0)             (-1.79769e+307 -1.79769e+307 -1.79769e+307)             (-1.79769e+307 -1.79769e+307 -1.79769e+307)
        0.144             (-1.79769e+307 -1.79769e+307 -1.79769e+307)             (126.272 -342.046 0)             (124.625 350.079 0)             (-1.79769e+307 -1.79769e+307 -1.79769e+307)             (-1.79769e+307 -1.79769e+307 -1.79769e+307)
        0.146             (-1.79769e+307 -1.79769e+307 -1.79769e+307)             (124.173 -342.287 0)             (124.585 350.932 0)             (-1.79769e+307 -1.79769e+307 -1.79769e+307)             (-1.79769e+307 -1.79769e+307 -1.79769e+307)
        0.148             (-1.79769e+307 -1.79769e+307 -1.79769e+307)             (123.336 -343.634 0)             (124.11 351.778 0)             (-1.79769e+307 -1.79769e+307 -1.79769e+307)             (-1.79769e+307 -1.79769e+307 -1.79769e+307)
         0.15             (-1.79769e+307 -1.79769e+307 -1.79769e+307)             (126.627 -345.722 0)             (124.787 353.145 0)             (-1.79769e+307 -1.79769e+307 -1.79769e+307)             (-1.79769e+307 -1.79769e+307 -1.79769e+307)
        0.152             (-1.79769e+307 -1.79769e+307 -1.79769e+307)             (127.973 -346.265 0)             (126.222 354.569 0)             (-1.79769e+307 -1.79769e+307 -1.79769e+307)             (-1.79769e+307 -1.79769e+307 -1.79769e+307)
        0.154             (-1.79769e+307 -1.79769e+307 -1.79769e+307)             (125.136 -346.673 0)             (126.527 355.471 0)             (-1.79769e+307 -1.79769e+307 -1.79769e+307)             (-1.79769e+307 -1.79769e+307 -1.79769e+307)
        0.156             (-1.79769e+307 -1.79769e+307 -1.79769e+307)             (125.67 -348.374 0)             (125.865 356.046 0)             (-1.79769e+307 -1.79769e+307 -1.79769e+307)             (-1.79769e+307 -1.79769e+307 -1.79769e+307)
        0.158             (-1.79769e+307 -1.79769e+307 -1.79769e+307)             (129.315 -349.898 0)             (126.118 357.148 0)             (-1.79769e+307 -1.79769e+307 -1.79769e+307)             (-1.79769e+307 -1.79769e+307 -1.79769e+307)
         0.16             (-1.79769e+307 -1.79769e+307 -1.79769e+307)             (128.915 -350.071 0)             (127.566 358.661 0)             (-1.79769e+307 -1.79769e+307 -1.79769e+307)             (-1.79769e+307 -1.79769e+307 -1.79769e+307)
        0.162             (-1.79769e+307 -1.79769e+307 -1.79769e+307)             (126.328 -350.817 0)             (128.288 359.665 0)             (-1.79769e+307 -1.79769e+307 -1.79769e+307)             (-1.79769e+307 -1.79769e+307 -1.79769e+307)
        0.164             (-1.79769e+307 -1.79769e+307 -1.79769e+307)             (128.195 -352.761 0)             (127.659 360.049 0)             (-1.79769e+307 -1.79769e+307 -1.79769e+307)             (-1.79769e+307 -1.79769e+307 -1.79769e+307)
        0.166             (-1.79769e+307 -1.79769e+307 -1.79769e+307)             (131.45 -353.579 0)             (127.513 360.858 0)             (-1.79769e+307 -1.79769e+307 -1.79769e+307)             (-1.79769e+307 -1.79769e+307 -1.79769e+307)
        0.168             (-1.79769e+307 -1.79769e+307 -1.79769e+307)             (129.435 -353.543 0)             (128.733 362.366 0)             (-1.79769e+307 -1.79769e+307 -1.79769e+307)             (-1.79769e+307 -1.79769e+307 -1.79769e+307)
         0.17             (-1.79769e+307 -1.79769e+307 -1.79769e+307)             (127.782 -354.75 0)             (129.801 363.495 0)             (-1.79769e+307 -1.79769e+307 -1.79769e+307)             (-1.79769e+307 -1.79769e+307 -1.79769e+307)
        0.172             (-1.79769e+307 -1.79769e+307 -1.79769e+307)             (130.832 -356.692 0)             (129.426 363.791 0)             (-1.79769e+307 -1.79769e+307 -1.79769e+307)             (-1.79769e+307 -1.79769e+307 -1.79769e+307)
        0.174             (-1.79769e+307 -1.79769e+307 -1.79769e+307)             (132.857 -356.863 0)             (128.965 364.33 0)             (-1.79769e+307 -1.79769e+307 -1.79769e+307)             (-1.79769e+307 -1.79769e+307 -1.79769e+307)
        0.176             (-1.79769e+307 -1.79769e+307 -1.79769e+307)             (129.844 -356.768 0)             (129.793 365.725 0)             (-1.79769e+307 -1.79769e+307 -1.79769e+307)             (-1.79769e+307 -1.79769e+307 -1.79769e+307)
        0.178             (-1.79769e+307 -1.79769e+307 -1.79769e+307)             (129.572 -358.482 0)             (131.041 366.948 0)             (-1.79769e+307 -1.79769e+307 -1.79769e+307)             (-1.79769e+307 -1.79769e+307 -1.79769e+307)
         0.18             (-1.79769e+307 -1.79769e+307 -1.79769e+307)             (133.307 -360.133 0)             (131.093 367.28 0)             (-1.79769e+307 -1.79769e+307 -1.79769e+307)             (-1.79769e+307 -1.79769e+307 -1.79769e+307)
        0.182             (-1.79769e+307 -1.79769e+307 -1.79769e+307)             (133.459 -359.795 0)             (130.469 367.622 0)             (-1.79769e+307 -1.79769e+307 -1.79769e+307)             (-1.79769e+307 -1.79769e+307 -1.79769e+307)
        0.184             (-1.79769e+307 -1.79769e+307 -1.79769e+307)             (130.426 -359.863 0)             (130.803 368.782 0)             (-1.79769e+307 -1.79769e+307 -1.79769e+307)             (-1.79769e+307 -1.79769e+307 -1.79769e+307)
        0.186             (-1.79769e+307 -1.79769e+307 -1.79769e+307)             (131.712 -361.979 0)             (132.037 370.017 0)             (-1.79769e+307 -1.79769e+307 -1.79769e+307)             (-1.79769e+307 -1.79769e+307 -1.79769e+307)
        0.188             (-1.79769e+307 -1.79769e+307 -1.79769e+307)             (135.376 -363.114 0)             (132.569 370.516 0)             (-1.79769e+307 -1.79769e+307 -1.79769e+307)             (-1.79769e+307 -1.79769e+307 -1.79769e+307)
         0.19             (-1.79769e+307 -1.79769e+307 -1.79769e+307)             (133.614 -362.485 0)             (131.998 370.768 0)             (-1.79769e+307 -1.79769e+307 -1.79769e+307)             (-1.79769e+307 -1.79769e+307 -1.79769e+307)
        0.192             (-1.79769e+307 -1.79769e+307 -1.79769e+307)             (131.347 -362.974 0)             (131.824 371.596 0)             (-1.79769e+307 -1.79769e+307 -1.79769e+307)             (-1.79769e+307 -1.79769e+307 -1.79769e+307)
        0.194             (-1.79769e+307 -1.79769e+307 -1.79769e+307)             (134.018 -365.145 0)             (132.851 372.741 0)             (-1.79769e+307 -1.79769e+307 -1.79769e+307)             (-1.79769e+307 -1.79769e+307 -1.79769e+307)
        0.196             (-1.79769e+307 -1.79769e+307 -1.79769e+307)             (136.682 -365.679 0)             (133.808 373.483 0)             (-1.79769e+307 -1.79769e+307 -1.79769e+307)             (-1.79769e+307 -1.79769e+307 -1.79769e+307)
        0.198             (-1.79769e+307 -1.79769e+307 -1.79769e+307)             (133.709 -365.037 0)             (133.499 373.771 0)             (-1.79769e+307 -1.79769e+307 -1.79769e+307)             (-1.79769e+307 -1.79769e+307 -1.79769e+307)
          0.2             (-1.79769e+307 -1.79769e+307 -1.79769e+307)             (132.602 -366.048 0)             (132.914 374.233 0)             (-1.79769e+307 -1.79769e+307 -1.79769e+307)             (-1.79769e+307 -1.79769e+307 -1.79769e+307)
        0.202             (-1.79769e+307 -1.79769e+307 -1.79769e+307)             (136.198 -367.921 0)             (133.558 375.189 0)             (-1.79769e+307 -1.79769e+307 -1.79769e+307)             (-1.79769e+307 -1.79769e+307 -1.79769e+307)
        0.204             (-1.79769e+307 -1.79769e+307 -1.79769e+307)             (137.254 -367.924 0)             (134.799 376.169 0)             (-1.79769e+307 -1.79769e+307 -1.79769e+307)             (-1.79769e+307 -1.79769e+307 -1.79769e+307)
        0.206             (-1.79769e+307 -1.79769e+307 -1.79769e+307)             (133.984 -367.563 0)             (134.896 376.615 0)             (-1.79769e+307 -1.79769e+307 -1.79769e+307)             (-1.79769e+307 -1.79769e+307 -1.79769e+307)
        0.208             (-1.79769e+307 -1.79769e+307 -1.79769e+307)             (134.151 -369.04 0)             (134.099 376.755 0)             (-1.79769e+307 -1.79769e+307 -1.79769e+307)             (-1.79769e+307 -1.79769e+307 -1.79769e+307)
         0.21             (-1.79769e+307 -1.79769e+307 -1.79769e+307)             (138.092 -370.355 0)             (134.253 377.428 0)             (-1.79769e+307 -1.79769e+307 -1.79769e+307)             (-1.79769e+307 -1.79769e+307 -1.79769e+307)
        0.212             (-1.79769e+307 -1.79769e+307 -1.79769e+307)             (137.375 -369.863 0)             (135.553 378.583 0)             (-1.79769e+307 -1.79769e+307 -1.79769e+307)             (-1.79769e+307 -1.79769e+307 -1.79769e+307)
        0.214             (-1.79769e+307 -1.79769e+307 -1.79769e+307)             (134.447 -370.08 0)             (136.109 379.258 0)             (-1.79769e+307 -1.79769e+307 -1.79769e+307)             (-1.79769e+307 -1.79769e+307 -1.79769e+307)
        0.216             (-1.79769e+307 -1.79769e+307 -1.79769e+307)             (135.976 -371.857 0)             (135.356 379.201 0)             (-1.79769e+307 -1.79769e+307 -1.79769e+307)             (-1.79769e+307 -1.79769e+307 -1.79769e+307)
        0.218             (-1.79769e+307 -1.79769e+307 -1.79769e+307)             (139.468 -372.501 0)             (135.044 379.556 0)             (-1.79769e+307 -1.79769e+307 -1.79769e+307)             (-1.79769e+307 -1.79769e+307 -1.79769e+307)
         0.22             (-1.79769e+307 -1.79769e+307 -1.79769e+307)             (137.319 -371.713 0)             (136.127 380.756 0)             (-1.79769e+307 -1.79769e+307 -1.79769e+307)             (-1.79769e+307 -1.79769e+307 -1.79769e+307)
        0.222             (-1.79769e+307 -1.79769e+307 -1.79769e+307)             (135.184 -372.494 0)             (137.083 381.656 0)             (-1.79769e+307 -1.79769e+307 -1.79769e+307)             (-1.79769e+307 -1.79769e+307 -1.79769e+307)
        0.224             (-1.79769e+307 -1.79769e+307 -1.79769e+307)             (137.945 -374.434 0)             (136.617 381.57 0)             (-1.79769e+307 -1.79769e+307 -1.79769e+307)             (-1.79769e+307 -1.79769e+307 -1.79769e+307)
        0.226             (-1.79769e+307 -1.79769e+307 -1.79769e+307)             (140.229 -374.404 0)             (135.973 381.642 0)             (-1.79769e+307 -1.79769e+307 -1.79769e+307)             (-1.79769e+307 -1.79769e+307 -1.79769e+307)
        0.228             (-1.79769e+307 -1.79769e+307 -1.79769e+307)             (137.234 -373.562 0)             (136.632 382.736 0)             (-1.79769e+307 -1.79769e+307 -1.79769e+307)             (-1.79769e+307 -1.79769e+307 -1.79769e+307)
         0.23             (-1.79769e+307 -1.79769e+307 -1.79769e+307)             (136.284 -374.869 0)             (137.8 383.785 0)             (-1.79769e+307 -1.79769e+307 -1.79769e+307)             (-1.79769e+307 -1.79769e+307 -1.79769e+307)
        0.232             (-1.79769e+307 -1.79769e+307 -1.79769e+307)             (139.926 -376.692 0)             (137.793 383.822 0)             (-1.79769e+307 -1.79769e+307 -1.79769e+307)             (-1.79769e+307 -1.79769e+307 -1.79769e+307)
        0.234             (-1.79769e+307 -1.79769e+307 -1.79769e+307)             (140.465 -375.993 0)             (137.031 383.72 0)             (-1.79769e+307 -1.79769e+307 -1.79769e+307)             (-1.79769e+307 -1.79769e+307 -1.79769e+307)
        0.236             (-1.79769e+307 -1.79769e+307 -1.79769e+307)             (137.297 -375.444 0)             (137.167 384.574 0)             (-1.79769e+307 -1.79769e+307 -1.79769e+307)             (-1.79769e+307 -1.79769e+307 -1.79769e+307)
        0.238             (-1.79769e+307 -1.79769e+307 -1.79769e+307)             (137.711 -377.182 0)             (138.292 385.646 0)             (-1.79769e+307 -1.79769e+307 -1.79769e+307)             (-1.79769e+307 -1.79769e+307 -1.79769e+307)
         0.24             (-1.79769e+307 -1.79769e+307 -1.79769e+307)             (141.585 -378.647 0)             (138.795 385.916 0)             (-1.79769e+307 -1.79769e+307 -1.79769e+307)             (-1.79769e+307 -1.79769e+307 -1.79769e+307)