# Probe 0 (0.181 7.37 0.5)
# Probe 1 (0.819 0.63 0.5)
# Probe 2 (0.181 0.63 0.5)
# Probe 3 (0.819 7.37 0.5)
# Probe 4 (0.181 4 0.5)
#       Probe             0             1             2             3             4
#        Time
        0.002 -1.79769e+307   7.39682e-14   7.39704e-14 -1.79769e+307 -1.79769e+307
        0.004 -1.79769e+307   1.28628e-10   1.28628e-10 -1.79769e+307 -1.79769e+307
        0.006 -1.79769e+307   9.41183e-09   9.41226e-09 -1.79769e+307 -1.79769e+307
        0.008 -1.79769e+307   1.51065e-07   1.51073e-07 -1.79769e+307 -1.79769e+307
         0.01 -1.79769e+307   1.03643e-06   1.03645e-06 -1.79769e+307 -1.79769e+307
        0.012 -1.79769e+307   4.22665e-06   4.22671e-06 -1.79769e+307 -1.79769e+307
        0.014 -1.79769e+307   1.22826e-05   1.22845e-05 -1.79769e+307 -1.79769e+307
        0.016 -1.79769e+307   2.83194e-05   2.83284e-05 -1.79769e+307 -1.79769e+307
        0.018 -1.79769e+307   5.54061e-05   5.54215e-05 -1.79769e+307 -1.79769e+307
         0.02 -1.79769e+307   9.60995e-05   9.61106e-05 -1.79769e+307 -1.79769e+307
        0.022 -1.79769e+307   0.000152212   0.000152199 -1.79769e+307 -1.79769e+307
        0.024 -1.79769e+307   0.000224775   0.000224721 -1.79769e+307 -1.79769e+307
        0.026 -1.79769e+307   0.000314134   0.000314002 -1.79769e+307 -1.79769e+307
        0.028 -1.79769e+307   0.000420088   0.000419786 -1.79769e+307 -1.79769e+307
         0.03 -1.79769e+307   0.000542017   0.000541414 -1.79769e+307 -1.79769e+307
        0.032 -1.79769e+307   0.000678963   0.000677973 -1.79769e+307 -1.79769e+307
        0.034 -1.79769e+307   0.000829826   0.000828326 -1.79769e+307 -1.79769e+307
        0.036 -1.79769e+307   0.000993428   0.000991223 -1.79769e+307 -1.79769e+307
        0.038 -1.79769e+307    0.00116859    0.00116545 -1.79769e+307 -1.79769e+307
         0.04 -1.79769e+307    0.00135401    0.00134974 -1.79769e+307 -1.79769e+307
        0.042 -1.79769e+307     0.0015485    0.00154291 -1.79769e+307 -1.79769e+307
        0.044 -1.79769e+307    0.00175094    0.00174385 -1.79769e+307 -1.79769e+307
        0.046 -1.79769e+307    0.00196026    0.00195159 -1.79769e+307 -1.79769e+307
        0.048 -1.79769e+307    0.00217548    0.00216512 -1.79769e+307 -1.79769e+307
         0.05 -1.79769e+307    0.00239569    0.00238359 -1.79769e+307 -1.79769e+307
        0.052 -1.79769e+307    0.00262006     0.0026062 -1.79769e+307 -1.79769e+307
        0.054 -1.79769e+307    0.00284788    0.00283219 -1.79769e+307 -1.79769e+307
        0.056 -1.79769e+307    0.00307856    0.00306092 -1.79769e+307 -1.79769e+307
        0.058 -1.79769e+307    0.00331154    0.00329182 -1.79769e+307 -1.79769e+307
         0.06 -1.79769e+307     0.0035461    0.00352454 -1.79769e+307 -1.79769e+307
        0.062 -1.79769e+307     0.0037818    0.00375855 -1.79769e+307 -1.79769e+307
        0.064 -1.79769e+307    0.00401822    0.00399345 -1.79769e+307 -1.79769e+307
        0.066 -1.79769e+307    0.00425494    0.00422901 -1.79769e+307 -1.79769e+307
        0.068 -1.79769e+307     0.0044917    0.00446494 -1.79769e+307 -1.79769e+307
         0.07 -1.79769e+307    0.00472825    0.00470101 -1.79769e+307 -1.79769e+307
        0.072 -1.79769e+307    0.00496424    0.00493711 -1.79769e+307 -1.79769e+307
        0.074 -1.79769e+307     0.0051993     0.0051731 -1.79769e+307 -1.79769e+307
        0.076 -1.79769e+307    0.00543315    0.00540888 -1.79769e+307 -1.79769e+307
        0.078 -1.79769e+307    0.00566559    0.00564421 -1.79769e+307 -1.79769e+307
         0.08 -1.79769e+307    0.00589648    0.00587905 -1.79769e+307 -1.79769e+307
        0.082 -1.79769e+307    0.00612548    0.00611361 -1.79769e+307 -1.79769e+307
        0.084 -1.79769e+307    0.00635227    0.00634805 -1.79769e+307 -1.79769e+307
        0.086 -1.79769e+307    0.00657671    0.00658239 -1.79769e+307 -1.79769e+307
        0.088 -1.79769e+307    0.00679874    0.00681665 -1.79769e+307 -1.79769e+307
         0.09 -1.79769e+307    0.00701831     0.0070508 -1.79769e+307 -1.79769e+307
        0.092 -1.79769e+307    0.00723525    0.00728491 -1.79769e+307 -1.79769e+307
        0.094 -1.79769e+307    0.00744951    0.00751891 -1.79769e+307 -1.79769e+307
        0.096 -1.79769e+307    0.00766099    0.00775283 -1.79769e+307 -1.79769e+307
        0.098 -1.79769e+307    0.00786976    0.00798679 -1.79769e+307 -1.79769e+307
          0.1 -1.79769e+307    0.00807582    0.00822078 -1.79769e+307 -1.79769e+307
        0.102 -1.79769e+307    0.00827912    0.00845485 -1.79769e+307 -1.79769e+307
        0.104 -1.79769e+307    0.00847968    0.00868889 -1.79769e+307 -1.79769e+307
        0.106 -1.79769e+307    0.00867747    0.00892287 -1.79769e+307 -1.79769e+307
        0.108 -1.79769e+307    0.00887224      0.009157 -1.79769e+307 -1.79769e+307
         0.11 -1.79769e+307    0.00906372    0.00939154 -1.79769e+307 -1.79769e+307
        0.112 -1.79769e+307    0.00925173    0.00962659 -1.79769e+307 -1.79769e+307
        0.114 -1.79769e+307    0.00943615    0.00986229 -1.79769e+307 -1.79769e+307
        0.116 -1.79769e+307    0.00961688     0.0100988 -1.79769e+307 -1.79769e+307
        0.118 -1.79769e+307    0.00979387     0.0103362 -1.79769e+307 -1.79769e+307
         0.12 -1.79769e+307    0.00996711     0.0105746 -1.79769e+307 -1.79769e+307
        0.122 -1.79769e+307     0.0101365     0.0108142 -1.79769e+307 -1.79769e+307
        0.124 -1.79769e+307     0.0103019     0.0110552 -1.79769e+307 -1.79769e+307
        0.126 -1.79769e+307     0.0104634     0.0112977 -1.79769e+307 -1.79769e+307
        0.128 -1.79769e+307     0.0106207     0.0115419 -1.79769e+307 -1.79769e+307
         0.13 -1.79769e+307     0.0107736     0.0117883 -1.79769e+307 -1.79769e+307
        0.132 -1.79769e+307      0.010922     0.0120372 -1.79769e+307 -1.79769e+307
        0.134 -1.79769e+307     0.0110656     0.0122889 -1.79769e+307 -1.79769e+307
        0.136 -1.79769e+307     0.0112041      0.012544 -1.79769e+307 -1.79769e+307
        0.138 -1.79769e+307     0.0113374     0.0128028 -1.79769e+307 -1.79769e+307
         0.14 -1.79769e+307     0.0114651      0.013066 -1.79769e+307 -1.79769e+307
        0.142 -1.79769e+307     0.0115867     0.0133344 -1.79769e+307 -1.79769e+307
        0.144 -1.79769e+307     0.0117019     0.0136088 -1.79769e+307 -1.79769e+307
        0.146 -1.79769e+307       0.01181     0.0138904 -1.79769e+307 -1.79769e+307
        0.148 -1.79769e+307     0.0119107     0.0141803 -1.79769e+307 -1.79769e+307
         0.15 -1.79769e+307     0.0120032     0.0144797 -1.79769e+307 -1.79769e+307
        0.152 -1.79769e+307     0.0120872     0.0147904 -1.79769e+307 -1.79769e+307
        0.154 -1.79769e+307      0.012162     0.0151141 -1.79769e+307 -1.79769e+307
        0.156 -1.79769e+307     0.0122271     0.0154528 -1.79769e+307 -1.79769e+307
        0.158 -1.79769e+307     0.0122821     0.0158087 -1.79769e+307 -1.79769e+307
         0.16 -1.79769e+307     0.0123266     0.0161845 -1.79769e+307 -1.79769e+307
        0.162 -1.79769e+307     0.0123605     0.0165829 -1.79769e+307 -1.79769e+307
        0.164 -1.79769e+307     0.0123837     0.0170073 -1.79769e+307 -1.79769e+307
        0.166 -1.79769e+307     0.0123962     0.0174614 -1.79769e+307 -1.79769e+307
        0.168 -1.79769e+307     0.0123983     0.0179494 -1.79769e+307 -1.79769e+307
         0.17 -1.79769e+307     0.0123906      0.018476 -1.79769e+307 -1.79769e+307
        0.172 -1.79769e+307      0.012374     0.0190466 -1.79769e+307 -1.79769e+307
        0.174 -1.79769e+307     0.0123496     0.0196666 -1.79769e+307 -1.79769e+307
        0.176 -1.79769e+307     0.0123192      0.020342 -1.79769e+307 -1.79769e+307
        0.178 -1.79769e+307     0.0122848     0.0210785 -1.79769e+307 -1.79769e+307
         0.18 -1.79769e+307     0.0122491     0.0218814 -1.79769e+307 -1.79769e+307
        0.182 -1.79769e+307     0.0122154     0.0227547 -1.79769e+307 -1.79769e+307
        0.184 -1.79769e+307     0.0121874     0.0237005 -1.79769e+307 -1.79769e+307
        0.186 -1.79769e+307     0.0121697     0.0247173 -1.79769e+307 -1.79769e+307
        0.188 -1.79769e+307     0.0121674     0.0257997 -1.79769e+307 -1.79769e+307
         0.19 -1.79769e+307     0.0121866     0.0269369 -1.79769e+307 -1.79769e+307
        0.192 -1.79769e+307      0.012234      0.028113 -1.79769e+307 -1.79769e+307
        0.194 -1.79769e+307     0.0123175     0.0293073 -1.79769e+307 -1.79769e+307
        0.196 -1.79769e+307     0.0124456      0.030496 -1.79769e+307 -1.79769e+307
        0.198 -1.79769e+307     0.0126279     0.0316531 -1.79769e+307 -1.79769e+307
          0.2 -1.79769e+307     0.0128741     0.0327535 -1.79769e+307 -1.79769e+307
        0.202 -1.79769e+307      0.013194     0.0337801 -1.79769e+307 -1.79769e+307
        0.204 -1.79769e+307     0.0135962     0.0347127 -1.79769e+307 -1.79769e+307
        0.206 -1.79769e+307     0.0140864     0.0355354 -1.79769e+307 -1.79769e+307
        0.208 -1.79769e+307      0.014667      0.036242 -1.79769e+307 -1.79769e+307
         0.21 -1.79769e+307     0.0153353     0.0368303 -1.79769e+307 -1.79769e+307
        0.212 -1.79769e+307     0.0160841     0.0372963 -1.79769e+307 -1.79769e+307
        0.214 -1.79769e+307     0.0169026     0.0376322 -1.79769e+307 -1.79769e+307
        0.216 -1.79769e+307     0.0177792     0.0378251 -1.79769e+307 -1.79769e+307
        0.218 -1.79769e+307     0.0187032     0.0378577 -1.79769e+307 -1.79769e+307
         0.22 -1.79769e+307     0.0196664     0.0377281 -1.79769e+307 -1.79769e+307
        0.222 -1.79769e+307     0.0206614      0.037435 -1.79769e+307 -1.79769e+307
        0.224 -1.79769e+307     0.0216803     0.0370032 -1.79769e+307 -1.79769e+307
        0.226 -1.79769e+307     0.0227126      0.036469 -1.79769e+307 -1.79769e+307
        0.228 -1.79769e+307     0.0237447     0.0358729 -1.79769e+307 -1.79769e+307
         0.23 -1.79769e+307     0.0247608     0.0352526 -1.79769e+307 -1.79769e+307
        0.232 -1.79769e+307     0.0257451     0.0346391 -1.79769e+307 -1.79769e+307
        0.234 -1.79769e+307     0.0266843     0.0340561 -1.79769e+307 -1.79769e+307
        0.236 -1.79769e+307      0.027572     0.0335215 -1.79769e+307 -1.79769e+307
        0.238 -1.79769e+307     0.0284103     0.0330485 -1.79769e+307 -1.79769e+307
         0.24 -1.79769e+307     0.0292072     0.0326466 -1.79769e+307 -1.79769e+307
        0.242 -1.79769e+307     0.0299697     0.0323218 -1.79769e+307 -1.79769e+307
        0.244 -1.79769e+307     0.0306969     0.0320762 -1.79769e+307 -1.79769e+307
        0.246 -1.79769e+307     0.0313726     0.0319078 -1.79769e+307 -1.79769e+307
        0.248 -1.79769e+307     0.0319734     0.0318114 -1.79769e+307 -1.79769e+307
         0.25 -1.79769e+307      0.032481      0.031779 -1.79769e+307 -1.79769e+307
        0.252 -1.79769e+307     0.0328897      0.031801 -1.79769e+307 -1.79769e+307
        0.254 -1.79769e+307     0.0332079     0.0318681 -1.79769e+307 -1.79769e+307
        0.256 -1.79769e+307     0.0334469     0.0319728 -1.79769e+307 -1.79769e+307
        0.258 -1.79769e+307     0.0336175     0.0321117 -1.79769e+307 -1.79769e+307
         0.26 -1.79769e+307     0.0337315     0.0322861 -1.79769e+307 -1.79769e+307
        0.262 -1.79769e+307      0.033802     0.0324999 -1.79769e+307 -1.79769e+307
        0.264 -1.79769e+307     0.0338424     0.0327577 -1.79769e+307 -1.79769e+307
        0.266 -1.79769e+307     0.0338643     0.0330609 -1.79769e+307 -1.79769e+307
        0.268 -1.79769e+307     0.0338769     0.0334061 -1.79769e+307 -1.79769e+307
         0.27 -1.79769e+307     0.0338861     0.0337853 -1.79769e+307 -1.79769e+307
        0.272 -1.79769e+307     0.0338959     0.0341888 -1.79769e+307 -1.79769e+307
        0.274 -1.79769e+307     0.0339085     0.0346063 -1.79769e+307 -1.79769e+307
        0.276 -1.79769e+307     0.0339254      0.035029 -1.79769e+307 -1.79769e+307
        0.278 -1.79769e+307     0.0339476     0.0354499 -1.79769e+307 -1.79769e+307
         0.28 -1.79769e+307      0.033976     0.0358642 -1.79769e+307 -1.79769e+307
        0.282 -1.79769e+307     0.0340111     0.0362683 -1.79769e+307 -1.79769e+307
        0.284 -1.79769e+307     0.0340536       0.03666 -1.79769e+307 -1.79769e+307
        0.286 -1.79769e+307     0.0341034     0.0370378 -1.79769e+307 -1.79769e+307
        0.288 -1.79769e+307     0.0341605     0.0374008 -1.79769e+307 -1.79769e+307
         0.29 -1.79769e+307     0.0342247     0.0377479 -1.79769e+307 -1.79769e+307
        0.292 -1.79769e+307     0.0342957     0.0380781 -1.79769e+307 -1.79769e+307
        0.294 -1.79769e+307     0.0343732     0.0383901 -1.79769e+307 -1.79769e+307
        0.296 -1.79769e+307     0.0344571     0.0386824 -1.79769e+307 -1.79769e+307
        0.298 -1.79769e+307     0.0345472     0.0389535 -1.79769e+307 -1.79769e+307
          0.3 -1.79769e+307     0.0346439     0.0392022 -1.79769e+307 -1.79769e+307
        0.302 -1.79769e+307     0.0347474     0.0394276 -1.79769e+307 -1.79769e+307
        0.304 -1.79769e+307     0.0348581     0.0396299 -1.79769e+307 -1.79769e+307
        0.306 -1.79769e+307     0.0349761     0.0398098 -1.79769e+307 -1.79769e+307
        0.308 -1.79769e+307     0.0351019     0.0399689 -1.79769e+307 -1.79769e+307
         0.31 -1.79769e+307     0.0352354     0.0401092 -1.79769e+307 -1.79769e+307
        0.312 -1.79769e+307     0.0353765     0.0402331 -1.79769e+307 -1.79769e+307
        0.314 -1.79769e+307     0.0355248     0.0403432 -1.79769e+307 -1.79769e+307
        0.316 -1.79769e+307     0.0356797     0.0404421 -1.79769e+307 -1.79769e+307
        0.318 -1.79769e+307     0.0358406     0.0405319 -1.79769e+307 -1.79769e+307
         0.32 -1.79769e+307     0.0360064     0.0406147 -1.79769e+307 -1.79769e+307
        0.322 -1.79769e+307     0.0361761     0.0406922 -1.79769e+307 -1.79769e+307
        0.324 -1.79769e+307     0.0363484     0.0407656 -1.79769e+307 -1.79769e+307
        0.326 -1.79769e+307     0.0365223     0.0408361 -1.79769e+307 -1.79769e+307
        0.328 -1.79769e+307     0.0366964     0.0409043 -1.79769e+307 -1.79769e+307
         0.33 -1.79769e+307     0.0368697     0.0409708 -1.79769e+307 -1.79769e+307
        0.332 -1.79769e+307     0.0370411     0.0410361 -1.79769e+307 -1.79769e+307
        0.334 -1.79769e+307     0.0372097     0.0411006 -1.79769e+307 -1.79769e+307
        0.336 -1.79769e+307     0.0373748     0.0411646 -1.79769e+307 -1.79769e+307
        0.338 -1.79769e+307     0.0375359     0.0412284 -1.79769e+307 -1.79769e+307
         0.34 -1.79769e+307     0.0376926     0.0412922 -1.79769e+307 -1.79769e+307
        0.342 -1.79769e+307     0.0378449     0.0413564 -1.79769e+307 -1.79769e+307
        0.344 -1.79769e+307     0.0379925     0.0414212 -1.79769e+307 -1.79769e+307
        0.346 -1.79769e+307     0.0381356     0.0414868 -1.79769e+307 -1.79769e+307
        0.348 -1.79769e+307     0.0382744     0.0415536 -1.79769e+307 -1.79769e+307
         0.35 -1.79769e+307      0.038409     0.0416217 -1.79769e+307 -1.79769e+307
        0.352 -1.79769e+307     0.0385396     0.0416913 -1.79769e+307 -1.79769e+307
        0.354 -1.79769e+307     0.0386665     0.0417624 -1.79769e+307 -1.79769e+307
        0.356 -1.79769e+307     0.0387899     0.0418352 -1.79769e+307 -1.79769e+307
        0.358 -1.79769e+307     0.0389101     0.0419096 -1.79769e+307 -1.79769e+307
         0.36 -1.79769e+307     0.0390273     0.0419857 -1.79769e+307 -1.79769e+307
        0.362 -1.79769e+307     0.0391416     0.0420633 -1.79769e+307 -1.79769e+307
        0.364 -1.79769e+307     0.0392534     0.0421423 -1.79769e+307 -1.79769e+307
        0.366 -1.79769e+307     0.0393626     0.0422227 -1.79769e+307 -1.79769e+307
        0.368 -1.79769e+307     0.0394696     0.0423042 -1.79769e+307 -1.79769e+307
         0.37 -1.79769e+307     0.0395744     0.0423866 -1.79769e+307 -1.79769e+307
        0.372 -1.79769e+307     0.0396772     0.0424698 -1.79769e+307 -1.79769e+307
        0.374 -1.79769e+307      0.039778     0.0425536 -1.79769e+307 -1.79769e+307
        0.376 -1.79769e+307      0.039877     0.0426378 -1.79769e+307 -1.79769e+307
        0.378 -1.79769e+307     0.0399742     0.0427221 -1.79769e+307 -1.79769e+307
         0.38 -1.79769e+307     0.0400697     0.0428065 -1.79769e+307 -1.79769e+307
        0.382 -1.79769e+307     0.0401636     0.0428907 -1.79769e+307 -1.79769e+307
        0.384 -1.79769e+307      0.040256     0.0429746 -1.79769e+307 -1.79769e+307
        0.386 -1.79769e+307     0.0403468      0.043058 -1.79769e+307 -1.79769e+307
        0.388 -1.79769e+307     0.0404362     0.0431409 -1.79769e+307 -1.79769e+307
         0.39 -1.79769e+307     0.0405243     0.0432232 -1.79769e+307 -1.79769e+307
        0.392 -1.79769e+307      0.040611     0.0433047 -1.79769e+307 -1.79769e+307
        0.394 -1.79769e+307     0.0406964     0.0433853 -1.79769e+307 -1.79769e+307
        0.396 -1.79769e+307     0.0407806     0.0434651 -1.79769e+307 -1.79769e+307
        0.398 -1.79769e+307     0.0408636      0.043544 -1.79769e+307 -1.79769e+307
          0.4 -1.79769e+307     0.0409455      0.043622 -1.79769e+307 -1.79769e+307
        0.402 -1.79769e+307     0.0410262     0.0436989 -1.79769e+307 -1.79769e+307
        0.404 -1.79769e+307     0.0411059     0.0437749 -1.79769e+307 -1.79769e+307
        0.406 -1.79769e+307     0.0411846     0.0438499 -1.79769e+307 -1.79769e+307
        0.408 -1.79769e+307     0.0412623     0.0439238 -1.79769e+307 -1.79769e+307
         0.41 -1.79769e+307      0.041339     0.0439967 -1.79769e+307 -1.79769e+307
        0.412 -1.79769e+307     0.0414148     0.0440686 -1.79769e+307 -1.79769e+307
        0.414 -1.79769e+307     0.0414897     0.0441394 -1.79769e+307 -1.79769e+307
        0.416 -1.79769e+307     0.0415637     0.0442092 -1.79769e+307 -1.79769e+307
        0.418 -1.79769e+307     0.0416369      0.044278 -1.79769e+307 -1.79769e+307
         0.42 -1.79769e+307     0.0417093     0.0443457 -1.79769e+307 -1.79769e+307
        0.422 -1.79769e+307     0.0417809     0.0444124 -1.79769e+307 -1.79769e+307
        0.424 -1.79769e+307     0.0418518     0.0444781 -1.79769e+307 -1.79769e+307
        0.426 -1.79769e+307     0.0419219     0.0445427 -1.79769e+307 -1.79769e+307
        0.428 -1.79769e+307     0.0419913     0.0446064 -1.79769e+307 -1.79769e+307
         0.43 -1.79769e+307     0.0420599      0.044669 -1.79769e+307 -1.79769e+307
        0.432 -1.79769e+307     0.0421279     0.0447305 -1.79769e+307 -1.79769e+307
        0.434 -1.79769e+307     0.0421951     0.0447911 -1.79769e+307 -1.79769e+307
        0.436 -1.79769e+307     0.0422617     0.0448507 -1.79769e+307 -1.79769e+307
        0.438 -1.79769e+307     0.0423276     0.0449093 -1.79769e+307 -1.79769e+307
         0.44 -1.79769e+307     0.0423929     0.0449669 -1.79769e+307 -1.79769e+307
        0.442 -1.79769e+307     0.0424575     0.0450235 -1.79769e+307 -1.79769e+307
        0.444 -1.79769e+307     0.0425214     0.0450791 -1.79769e+307 -1.79769e+307
        0.446 -1.79769e+307     0.0425846     0.0451338 -1.79769e+307 -1.79769e+307
        0.448 -1.79769e+307     0.0426473     0.0451876 -1.79769e+307 -1.79769e+307
         0.45 -1.79769e+307     0.0427092     0.0452404 -1.79769e+307 -1.79769e+307
        0.452 -1.79769e+307     0.0427705     0.0452923 -1.79769e+307 -1.79769e+307
        0.454 -1.79769e+307     0.0428312     0.0453434 -1.79769e+307 -1.79769e+307
        0.456 -1.79769e+307     0.0428912     0.0453935 -1.79769e+307 -1.79769e+307
        0.458 -1.79769e+307     0.0429506     0.0454428 -1.79769e+307 -1.79769e+307
         0.46 -1.79769e+307     0.0430093     0.0454913 -1.79769e+307 -1.79769e+307
        0.462 -1.79769e+307     0.0430674     0.0455389 -1.79769e+307 -1.79769e+307
        0.464 -1.79769e+307     0.0431248     0.0455857 -1.79769e+307 -1.79769e+307
        0.466 -1.79769e+307     0.0431816     0.0456318 -1.79769e+307 -1.79769e+307
        0.468 -1.79769e+307     0.0432378     0.0456771 -1.79769e+307 -1.79769e+307
         0.47 -1.79769e+307     0.0432933     0.0457216 -1.79769e+307 -1.79769e+307
        0.472 -1.79769e+307     0.0433482     0.0457654 -1.79769e+307 -1.79769e+307
        0.474 -1.79769e+307     0.0434025     0.0458086 -1.79769e+307 -1.79769e+307
        0.476 -1.79769e+307     0.0434562      0.045851 -1.79769e+307 -1.79769e+307
        0.478 -1.79769e+307     0.0435093     0.0458927 -1.79769e+307 -1.79769e+307
         0.48 -1.79769e+307     0.0435617     0.0459338 -1.79769e+307 -1.79769e+307
        0.482 -1.79769e+307     0.0436136     0.0459743 -1.79769e+307 -1.79769e+307
        0.484 -1.79769e+307     0.0436648     0.0460141 -1.79769e+307 -1.79769e+307
        0.486 -1.79769e+307     0.0437155     0.0460534 -1.79769e+307 -1.79769e+307
        0.488 -1.79769e+307     0.0437656      0.046092 -1.79769e+307 -1.79769e+307
         0.49 -1.79769e+307     0.0438151     0.0461301 -1.79769e+307 -1.79769e+307
        0.492 -1.79769e+307      0.043864     0.0461676 -1.79769e+307 -1.79769e+307
        0.494 -1.79769e+307     0.0439124     0.0462046 -1.79769e+307 -1.79769e+307
        0.496 -1.79769e+307     0.0439602      0.046241 -1.79769e+307 -1.79769e+307
        0.498 -1.79769e+307     0.0440075     0.0462769 -1.79769e+307 -1.79769e+307
          0.5 -1.79769e+307     0.0440542     0.0463123 -1.79769e+307 -1.79769e+307
        0.502 -1.79769e+307     0.0441004     0.0463471 -1.79769e+307 -1.79769e+307
        0.504 -1.79769e+307     0.0441461     0.0463815 -1.79769e+307 -1.79769e+307
        0.506 -1.79769e+307     0.0441913     0.0464154 -1.79769e+307 -1.79769e+307
        0.508 -1.79769e+307     0.0442359     0.0464489 -1.79769e+307 -1.79769e+307
         0.51 -1.79769e+307     0.0442801     0.0464818 -1.79769e+307 -1.79769e+307
        0.512 -1.79769e+307     0.0443237     0.0465143 -1.79769e+307 -1.79769e+307
        0.514 -1.79769e+307     0.0443668     0.0465464 -1.79769e+307 -1.79769e+307
        0.516 -1.79769e+307     0.0444095      0.046578 -1.79769e+307 -1.79769e+307
        0.518 -1.79769e+307     0.0444517     0.0466092 -1.79769e+307 -1.79769e+307
         0.52 -1.79769e+307     0.0444934       0.04664 -1.79769e+307 -1.79769e+307
        0.522 -1.79769e+307     0.0445346     0.0466703 -1.79769e+307 -1.79769e+307
        0.524 -1.79769e+307     0.0445754     0.0467002 -1.79769e+307 -1.79769e+307
        0.526 -1.79769e+307     0.0446158     0.0467297 -1.79769e+307 -1.79769e+307
        0.528 -1.79769e+307     0.0446556     0.0467588 -1.79769e+307 -1.79769e+307
         0.53 -1.79769e+307     0.0446951     0.0467876 -1.79769e+307 -1.79769e+307
        0.532 -1.79769e+307     0.0447341     0.0468159 -1.79769e+307 -1.79769e+307
        0.534 -1.79769e+307     0.0447727     0.0468438 -1.79769e+307 -1.79769e+307
        0.536 -1.79769e+307     0.0448109     0.0468714 -1.79769e+307 -1.79769e+307
        0.538 -1.79769e+307     0.0448487     0.0468985 -1.79769e+307 -1.79769e+307
         0.54 -1.79769e+307      0.044886     0.0469253 -1.79769e+307 -1.79769e+307
        0.542 -1.79769e+307      0.044923     0.0469518 -1.79769e+307 -1.79769e+307
        0.544 -1.79769e+307     0.0449596     0.0469778 -1.79769e+307 -1.79769e+307
        0.546 -1.79769e+307     0.0449957     0.0470035 -1.79769e+307 -1.79769e+307
        0.548 -1.79769e+307     0.0450315     0.0470289 -1.79769e+307 -1.79769e+307
         0.55 -1.79769e+307     0.0450669     0.0470539 -1.79769e+307 -1.79769e+307
        0.552 -1.79769e+307      0.045102     0.0470785 -1.79769e+307 -1.79769e+307
        0.554 -1.79769e+307     0.0451367     0.0471028 -1.79769e+307 -1.79769e+307
        0.556 -1.79769e+307      0.045171     0.0471268 -1.79769e+307 -1.79769e+307
        0.558 -1.79769e+307     0.0452049     0.0471504 -1.79769e+307 -1.79769e+307
         0.56 -1.79769e+307     0.0452386     0.0471737 -1.79769e+307 -1.79769e+307
        0.562 -1.79769e+307     0.0452718     0.0471967 -1.79769e+307 -1.79769e+307
        0.564 -1.79769e+307     0.0453048     0.0472194 -1.79769e+307 -1.79769e+307
        0.566 -1.79769e+307     0.0453373     0.0472417 -1.79769e+307 -1.79769e+307
        0.568 -1.79769e+307     0.0453696     0.0472637 -1.79769e+307 -1.79769e+307
         0.57 -1.79769e+307     0.0454016     0.0472854 -1.79769e+307 -1.79769e+307
        0.572 -1.79769e+307     0.0454332     0.0473068 -1.79769e+307 -1.79769e+307
        0.574 -1.79769e+307     0.0454645     0.0473279 -1.79769e+307 -1.79769e+307
        0.576 -1.79769e+307     0.0454955     0.0473487 -1.79769e+307 -1.79769e+307
        0.578 -1.79769e+307     0.0455262     0.0473691 -1.79769e+307 -1.79769e+307
         0.58 -1.79769e+307     0.0455566     0.0473893 -1.79769e+307 -1.79769e+307
        0.582 -1.79769e+307     0.0455867     0.0474092 -1.79769e+307 -1.79769e+307
        0.584 -1.79769e+307     0.0456166     0.0474288 -1.79769e+307 -1.79769e+307
        0.586 -1.79769e+307     0.0456461     0.0474481 -1.79769e+307 -1.79769e+307
        0.588 -1.79769e+307     0.0456754     0.0474672 -1.79769e+307 -1.79769e+307
         0.59 -1.79769e+307     0.0457044     0.0474859 -1.79769e+307 -1.79769e+307
        0.592 -1.79769e+307     0.0457331     0.0475044 -1.79769e+307 -1.79769e+307
        0.594 -1.79769e+307     0.0457615     0.0475226 -1.79769e+307 -1.79769e+307
        0.596 -1.79769e+307     0.0457897     0.0475406 -1.79769e+307 -1.79769e+307
        0.598 -1.79769e+307     0.0458176     0.0475582 -1.79769e+307 -1.79769e+307
          0.6 -1.79769e+307     0.0458453     0.0475757 -1.79769e+307 -1.79769e+307
        0.602 -1.79769e+307     0.0458727     0.0475928 -1.79769e+307 -1.79769e+307
        0.604 -1.79769e+307     0.0458999     0.0476097 -1.79769e+307 -1.79769e+307
        0.606 -1.79769e+307     0.0459268     0.0476264 -1.79769e+307 -1.79769e+307
        0.608 -1.79769e+307     0.0459535     0.0476428 -1.79769e+307 -1.79769e+307
         0.61 -1.79769e+307       0.04598     0.0476589 -1.79769e+307 -1.79769e+307
        0.612 -1.79769e+307     0.0460062     0.0476748 -1.79769e+307 -1.79769e+307
        0.614 -1.79769e+307     0.0460322     0.0476905 -1.79769e+307 -1.79769e+307
        0.616 -1.79769e+307      0.046058     0.0477059 -1.79769e+307 -1.79769e+307
        0.618 -1.79769e+307     0.0460835     0.0477211 -1.79769e+307 -1.79769e+307
         0.62 -1.79769e+307     0.0461089     0.0477361 -1.79769e+307 -1.79769e+307
        0.622 -1.79769e+307      0.046134     0.0477508 -1.79769e+307 -1.79769e+307
        0.624 -1.79769e+307     0.0461589     0.0477653 -1.79769e+307 -1.79769e+307
        0.626 -1.79769e+307     0.0461837     0.0477796 -1.79769e+307 -1.79769e+307
        0.628 -1.79769e+307     0.0462082     0.0477937 -1.79769e+307 -1.79769e+307
         0.63 -1.79769e+307     0.0462325     0.0478076 -1.79769e+307 -1.79769e+307
        0.632 -1.79769e+307     0.0462566     0.0478212 -1.79769e+307 -1.79769e+307
        0.634 -1.79769e+307     0.0462805     0.0478346 -1.79769e+307 -1.79769e+307
        0.636 -1.79769e+307     0.0463043     0.0478479 -1.79769e+307 -1.79769e+307
        0.638 -1.79769e+307     0.0463278     0.0478609 -1.79769e+307 -1.79769e+307
         0.64 -1.79769e+307     0.0463512     0.0478737 -1.79769e+307 -1.79769e+307
        0.642 -1.79769e+307     0.0463744     0.0478863 -1.79769e+307 -1.79769e+307
        0.644 -1.79769e+307     0.0463974     0.0478987 -1.79769e+307 -1.79769e+307
        0.646 -1.79769e+307     0.0464202      0.047911 -1.79769e+307 -1.79769e+307
        0.648 -1.79769e+307     0.0464429      0.047923 -1.79769e+307 -1.79769e+307
         0.65 -1.79769e+307     0.0464653     0.0479349 -1.79769e+307 -1.79769e+307
        0.652 -1.79769e+307     0.0464877     0.0479465 -1.79769e+307 -1.79769e+307
        0.654 -1.79769e+307     0.0465098      0.047958 -1.79769e+307 -1.79769e+307
        0.656 -1.79769e+307     0.0465318     0.0479693 -1.79769e+307 -1.79769e+307
        0.658 -1.79769e+307     0.0465537     0.0479805 -1.79769e+307 -1.79769e+307
         0.66 -1.79769e+307     0.0465754     0.0479914 -1.79769e+307 -1.79769e+307
        0.662 -1.79769e+307     0.0465969     0.0480022 -1.79769e+307 -1.79769e+307
        0.664 -1.79769e+307     0.0466183     0.0480128 -1.79769e+307 -1.79769e+307
        0.666 -1.79769e+307     0.0466395     0.0480233 -1.79769e+307 -1.79769e+307
        0.668 -1.79769e+307     0.0466606     0.0480336 -1.79769e+307 -1.79769e+307
         0.67 -1.79769e+307     0.0466815     0.0480437 -1.79769e+307 -1.79769e+307
        0.672 -1.79769e+307     0.0467023     0.0480537 -1.79769e+307 -1.79769e+307
        0.674 -1.79769e+307      0.046723     0.0480635 -1.79769e+307 -1.79769e+307
        0.676 -1.79769e+307     0.0467435     0.0480732 -1.79769e+307 -1.79769e+307
        0.678 -1.79769e+307     0.0467639     0.0480827 -1.79769e+307 -1.79769e+307
         0.68 -1.79769e+307     0.0467841      0.048092 -1.79769e+307 -1.79769e+307
        0.682 -1.79769e+307     0.0468042     0.0481013 -1.79769e+307 -1.79769e+307
        0.684 -1.79769e+307     0.0468242     0.0481103 -1.79769e+307 -1.79769e+307
        0.686 -1.79769e+307     0.0468441     0.0481193 -1.79769e+307 -1.79769e+307
        0.688 -1.79769e+307     0.0468638     0.0481281 -1.79769e+307 -1.79769e+307
         0.69 -1.79769e+307     0.0468834     0.0481367 -1.79769e+307 -1.79769e+307
        0.692 -1.79769e+307     0.0469029     0.0481453 -1.79769e+307 -1.79769e+307
        0.694 -1.79769e+307     0.0469223     0.0481537 -1.79769e+307 -1.79769e+307
        0.696 -1.79769e+307     0.0469415     0.0481619 -1.79769e+307 -1.79769e+307
        0.698 -1.79769e+307     0.0469607     0.0481701 -1.79769e+307 -1.79769e+307
          0.7 -1.79769e+307     0.0469797     0.0481781 -1.79769e+307 -1.79769e+307
        0.702 -1.79769e+307     0.0469986      0.048186 -1.79769e+307 -1.79769e+307
        0.704 -1.79769e+307     0.0470174     0.0481938 -1.79769e+307 -1.79769e+307
        0.706 -1.79769e+307     0.0470361     0.0482014 -1.79769e+307 -1.79769e+307
        0.708 -1.79769e+307     0.0470547      0.048209 -1.79769e+307 -1.79769e+307