# Probe 0 (0.181 7.37 0.5)
# Probe 1 (0.819 0.63 0.5)
# Probe 2 (0.181 0.63 0.5)
# Probe 3 (0.819 7.37 0.5)
# Probe 4 (0.181 4 0.5)
#       Probe             0             1             2             3             4
#        Time
        0.002             (-1.79769e+307 -1.79769e+307 -1.79769e+307)             (-0.000226087 0.00115692 -8.74942e-05)             (0.000226217 0.00115694 -8.75851e-05)             (-1.79769e+307 -1.79769e+307 -1.79769e+307)             (-1.79769e+307 -1.79769e+307 -1.79769e+307)
        0.004             (-1.79769e+307 -1.79769e+307 -1.79769e+307)             (0.000604338 0.00242156 -0.000115514)             (-0.000659733 0.00232112 -0.000130299)             (-1.79769e+307 -1.79769e+307 -1.79769e+307)             (-1.79769e+307 -1.79769e+307 -1.79769e+307)
        0.006             (-1.79769e+307 -1.79769e+307 -1.79769e+307)             (0.000843147 0.00460703 0.000156158)             (-0.000748855 0.00598151 0.000131527)             (-1.79769e+307 -1.79769e+307 -1.79769e+307)             (-1.79769e+307 -1.79769e+307 -1.79769e+307)
        0.008             (-1.79769e+307 -1.79769e+307 -1.79769e+307)             (-0.00294131 0.00459735 -0.000364818)             (0.00353874 0.00367371 0.000951628)             (-1.79769e+307 -1.79769e+307 -1.79769e+307)             (-1.79769e+307 -1.79769e+307 -1.79769e+307)
         0.01             (-1.79769e+307 -1.79769e+307 -1.79769e+307)             (-0.000585906 0.00283455 -0.00121472)             (0.00148078 0.00325564 0.00146285)             (-1.79769e+307 -1.79769e+307 -1.79769e+307)             (-1.79769e+307 -1.79769e+307 -1.79769e+307)
        0.012             (-1.79769e+307 -1.79769e+307 -1.79769e+307)             (-0.00254849 -0.00128918 -0.00269179)             (0.00406628 7.05901e-05 0.00263717)             (-1.79769e+307 -1.79769e+307 -1.79769e+307)             (-1.79769e+307 -1.79769e+307 -1.79769e+307)
        0.014             (-1.79769e+307 -1.79769e+307 -1.79769e+307)             (-0.00548084 -0.00743552 -3.37708e-05)             (0.00526836 -0.00245839 0.00390297)             (-1.79769e+307 -1.79769e+307 -1.79769e+307)             (-1.79769e+307 -1.79769e+307 -1.79769e+307)
        0.016             (-1.79769e+307 -1.79769e+307 -1.79769e+307)             (-0.00622633 -0.0103577 -0.00232007)             (0.00447161 -0.00352084 0.00488422)             (-1.79769e+307 -1.79769e+307 -1.79769e+307)             (-1.79769e+307 -1.79769e+307 -1.79769e+307)
        0.018             (-1.79769e+307 -1.79769e+307 -1.79769e+307)             (-0.00511421 -0.0094596 -0.00461501)             (0.00574496 -0.00648937 0.00595621)             (-1.79769e+307 -1.79769e+307 -1.79769e+307)             (-1.79769e+307 -1.79769e+307 -1.79769e+307)
         0.02             (-1.79769e+307 -1.79769e+307 -1.79769e+307)             (-0.00311505 -0.00649299 -0.00655336)             (0.00564779 -0.00845882 0.00582837)             (-1.79769e+307 -1.79769e+307 -1.79769e+307)             (-1.79769e+307 -1.79769e+307 -1.79769e+307)
        0.022             (-1.79769e+307 -1.79769e+307 -1.79769e+307)             (-0.00204269 -0.00451773 -0.00718036)             (0.00413065 -0.00918699 0.00498962)             (-1.79769e+307 -1.79769e+307 -1.79769e+307)             (-1.79769e+307 -1.79769e+307 -1.79769e+307)
        0.024             (-1.79769e+307 -1.79769e+307 -1.79769e+307)             (-0.0013802 -0.00288591 -0.00569801)             (0.00203251 -0.00891271 0.00585054)             (-1.79769e+307 -1.79769e+307 -1.79769e+307)             (-1.79769e+307 -1.79769e+307 -1.79769e+307)
        0.026             (-1.79769e+307 -1.79769e+307 -1.79769e+307)             (-0.00106686 -0.000138327 -0.00557234)             (0.00146422 -0.0108837 0.00714421)             (-1.79769e+307 -1.79769e+307 -1.79769e+307)             (-1.79769e+307 -1.79769e+307 -1.79769e+307)
        0.028             (-1.79769e+307 -1.79769e+307 -1.79769e+307)             (0.000707083 0.00437073 -0.00461107)             (0.00224646 -0.0154313 0.00608766)             (-1.79769e+307 -1.79769e+307 -1.79769e+307)             (-1.79769e+307 -1.79769e+307 -1.79769e+307)
         0.03             (-1.79769e+307 -1.79769e+307 -1.79769e+307)             (0.0014846 0.00670534 -0.00120899)             (0.00235441 -0.0168509 0.00581982)             (-1.79769e+307 -1.79769e+307 -1.79769e+307)             (-1.79769e+307 -1.79769e+307 -1.79769e+307)
        0.032             (-1.79769e+307 -1.79769e+307 -1.79769e+307)             (0.00390441 0.00879985 0.00119131)             (0.00228569 -0.0181801 0.00478403)             (-1.79769e+307 -1.79769e+307 -1.79769e+307)             (-1.79769e+307 -1.79769e+307 -1.79769e+307)
        0.034             (-1.79769e+307 -1.79769e+307 -1.79769e+307)             (0.00526257 0.0107473 0.00159541)             (0.0027434 -0.0216485 0.00482872)             (-1.79769e+307 -1.79769e+307 -1.79769e+307)             (-1.79769e+307 -1.79769e+307 -1.79769e+307)
        0.036             (-1.79769e+307 -1.79769e+307 -1.79769e+307)             (0.00715253 0.0163548 0.00179159)             (0.00393652 -0.0265364 0.00333672)             (-1.79769e+307 -1.79769e+307 -1.79769e+307)             (-1.79769e+307 -1.79769e+307 -1.79769e+307)
        0.038             (-1.79769e+307 -1.79769e+307 -1.79769e+307)             (0.00893429 0.0221993 -6.73303e-05)             (0.00350213 -0.0292366 0.00226327)             (-1.79769e+307 -1.79769e+307 -1.79769e+307)             (-1.79769e+307 -1.79769e+307 -1.79769e+307)
         0.04             (-1.79769e+307 -1.79769e+307 -1.79769e+307)             (0.00960416 0.0244848 0.000189337)             (0.00350987 -0.0336342 0.00184029)             (-1.79769e+307 -1.79769e+307 -1.79769e+307)             (-1.79769e+307 -1.79769e+307 -1.79769e+307)
        0.042             (-1.79769e+307 -1.79769e+307 -1.79769e+307)             (0.0115438 0.0268642 0.00085456)             (0.00372184 -0.0372972 0.000483811)             (-1.79769e+307 -1.79769e+307 -1.79769e+307)             (-1.79769e+307 -1.79769e+307 -1.79769e+307)
        0.044             (-1.79769e+307 -1.79769e+307 -1.79769e+307)             (0.0124923 0.0284527 -6.63516e-05)             (0.00305905 -0.0387197 0.000314402)             (-1.79769e+307 -1.79769e+307 -1.79769e+307)             (-1.79769e+307 -1.79769e+307 -1.79769e+307)
        0.046             (-1.79769e+307 -1.79769e+307 -1.79769e+307)             (0.0144697 0.0294464 -0.000390581)             (0.00421315 -0.0407628 0.00328859)             (-1.79769e+307 -1.79769e+307 -1.79769e+307)             (-1.79769e+307 -1.79769e+307 -1.79769e+307)
        0.048             (-1.79769e+307 -1.79769e+307 -1.79769e+307)             (0.014851 0.0295415 -0.000601867)             (0.00415781 -0.0417042 0.00558787)             (-1.79769e+307 -1.79769e+307 -1.79769e+307)             (-1.79769e+307 -1.79769e+307 -1.79769e+307)
         0.05             (-1.79769e+307 -1.79769e+307 -1.79769e+307)             (0.015183 0.0292165 -0.00190343)             (0.00518891 -0.0430027 0.00817827)             (-1.79769e+307 -1.79769e+307 -1.79769e+307)             (-1.79769e+307 -1.79769e+307 -1.79769e+307)
        0.052             (-1.79769e+307 -1.79769e+307 -1.79769e+307)             (0.0156723 0.0269644 -0.00610394)             (0.00605599 -0.0444992 0.00950212)             (-1.79769e+307 -1.79769e+307 -1.79769e+307)             (-1.79769e+307 -1.79769e+307 -1.79769e+307)
        0.054             (-1.79769e+307 -1.79769e+307 -1.79769e+307)             (0.0170906 0.0266259 -0.00992862)             (0.00576129 -0.0465153 0.0122695)             (-1.79769e+307 -1.79769e+307 -1.79769e+307)             (-1.79769e+307 -1.79769e+307 -1.79769e+307)
        0.056             (-1.79769e+307 -1.79769e+307 -1.79769e+307)             (0.0194198 0.0271887 -0.0089952)             (0.00603436 -0.0497266 0.0151288)             (-1.79769e+307 -1.79769e+307 -1.79769e+307)             (-1.79769e+307 -1.79769e+307 -1.79769e+307)
        0.058             (-1.79769e+307 -1.79769e+307 -1.79769e+307)             (0.021577 0.0263348 -0.00868954)             (0.006112 -0.0511811 0.015712)             (-1.79769e+307 -1.79769e+307 -1.79769e+307)             (-1.79769e+307 -1.79769e+307 -1.79769e+307)
         0.06             (-1.79769e+307 -1.79769e+307 -1.79769e+307)             (0.0220281 0.0216017 -0.0102591)             (0.00605502 -0.0503277 0.0191377)             (-1.79769e+307 -1.79769e+307 -1.79769e+307)             (-1.79769e+307 -1.79769e+307 -1.79769e+307)
        0.062             (-1.79769e+307 -1.79769e+307 -1.79769e+307)             (0.0215089 0.0186468 -0.0110884)             (0.00718319 -0.0530657 0.0213304)             (-1.79769e+307 -1.79769e+307 -1.79769e+307)             (-1.79769e+307 -1.79769e+307 -1.79769e+307)
        0.064             (-1.79769e+307 -1.79769e+307 -1.79769e+307)             (0.0196966 0.0140403 -0.0128862)             (0.00623248 -0.0537819 0.0239308)             (-1.79769e+307 -1.79769e+307 -1.79769e+307)             (-1.79769e+307 -1.79769e+307 -1.79769e+307)
        0.066             (-1.79769e+307 -1.79769e+307 -1.79769e+307)             (0.0180657 0.00770858 -0.0146225)             (0.00542407 -0.0531647 0.0242796)             (-1.79769e+307 -1.79769e+307 -1.79769e+307)             (-1.79769e+307 -1.79769e+307 -1.79769e+307)
        0.068             (-1.79769e+307 -1.79769e+307 -1.79769e+307)             (0.0176284 0.00356941 -0.0140728)             (0.00356521 -0.0524144 0.0252381)             (-1.79769e+307 -1.79769e+307 -1.79769e+307)             (-1.79769e+307 -1.79769e+307 -1.79769e+307)
         0.07             (-1.79769e+307 -1.79769e+307 -1.79769e+307)             (0.0179853 -0.00111082 -0.013251)             (0.00280272 -0.0514052 0.024381)             (-1.79769e+307 -1.79769e+307 -1.79769e+307)             (-1.79769e+307 -1.79769e+307 -1.79769e+307)
        0.072             (-1.79769e+307 -1.79769e+307 -1.79769e+307)             (0.0166124 -0.00838711 -0.0122669)             (0.00200214 -0.0478546 0.0227916)             (-1.79769e+307 -1.79769e+307 -1.79769e+307)             (-1.79769e+307 -1.79769e+307 -1.79769e+307)
        0.074             (-1.79769e+307 -1.79769e+307 -1.79769e+307)             (0.0154111 -0.0188345 -0.0132959)             (0.00167006 -0.042292 0.0252642)             (-1.79769e+307 -1.79769e+307 -1.79769e+307)             (-1.79769e+307 -1.79769e+307 -1.79769e+307)
        0.076             (-1.79769e+307 -1.79769e+307 -1.79769e+307)             (0.0150476 -0.0301104 -0.0154818)             (0.00275811 -0.0376273 0.0278434)             (-1.79769e+307 -1.79769e+307 -1.79769e+307)             (-1.79769e+307 -1.79769e+307 -1.79769e+307)
        0.078             (-1.79769e+307 -1.79769e+307 -1.79769e+307)             (0.0145544 -0.0418094 -0.020027)             (0.0035752 -0.0349794 0.0276502)             (-1.79769e+307 -1.79769e+307 -1.79769e+307)             (-1.79769e+307 -1.79769e+307 -1.79769e+307)
         0.08             (-1.79769e+307 -1.79769e+307 -1.79769e+307)             (0.0140323 -0.0559872 -0.0220905)             (0.00342972 -0.0281945 0.0290474)             (-1.79769e+307 -1.79769e+307 -1.79769e+307)             (-1.79769e+307 -1.79769e+307 -1.79769e+307)
        0.082             (-1.79769e+307 -1.79769e+307 -1.79769e+307)             (0.0132865 -0.0742457 -0.0207202)             (0.00319869 -0.0166321 0.0285379)             (-1.79769e+307 -1.79769e+307 -1.79769e+307)             (-1.79769e+307 -1.79769e+307 -1.79769e+307)
        0.084             (-1.79769e+307 -1.79769e+307 -1.79769e+307)             (0.0110455 -0.0962738 -0.019792)             (0.00209778 -0.00222419 0.0238591)             (-1.79769e+307 -1.79769e+307 -1.79769e+307)             (-1.79769e+307 -1.79769e+307 -1.79769e+307)
        0.086             (-1.79769e+307 -1.79769e+307 -1.79769e+307)             (0.00896739 -0.119483 -0.018915)             (-0.000272982 0.0147634 0.0177655)             (-1.79769e+307 -1.79769e+307 -1.79769e+307)             (-1.79769e+307 -1.79769e+307 -1.79769e+307)
        0.088             (-1.79769e+307 -1.79769e+307 -1.79769e+307)             (0.00880776 -0.142688 -0.0157108)             (-0.00277257 0.0326715 0.0141575)             (-1.79769e+307 -1.79769e+307 -1.79769e+307)             (-1.79769e+307 -1.79769e+307 -1.79769e+307)
         0.09             (-1.79769e+307 -1.79769e+307 -1.79769e+307)             (0.00976592 -0.168284 -0.00950551)             (-0.00636665 0.0542789 0.007861)             (-1.79769e+307 -1.79769e+307 -1.79769e+307)             (-1.79769e+307 -1.79769e+307 -1.79769e+307)
        0.092             (-1.79769e+307 -1.79769e+307 -1.79769e+307)             (0.00967337 -0.196518 -0.00274127)             (-0.00878202 0.0767098 -0.000705214)             (-1.79769e+307 -1.79769e+307 -1.79769e+307)             (-1.79769e+307 -1.79769e+307 -1.79769e+307)
        0.094             (-1.79769e+307 -1.79769e+307 -1.79769e+307)             (0.0107051 -0.225237 0.00500589)             (-0.00974014 0.0993186 -0.00922362)             (-1.79769e+307 -1.79769e+307 -1.79769e+307)             (-1.79769e+307 -1.79769e+307 -1.79769e+307)
        0.096             (-1.79769e+307 -1.79769e+307 -1.79769e+307)             (0.0114997 -0.256155 0.0131542)             (-0.0113047 0.125889 -0.0177813)             (-1.79769e+307 -1.79769e+307 -1.79769e+307)             (-1.79769e+307 -1.79769e+307 -1.79769e+307)
        0.098             (-1.79769e+307 -1.79769e+307 -1.79769e+307)             (0.0142221 -0.286254 0.0208137)             (-0.0122815 0.154069 -0.0246737)             (-1.79769e+307 -1.79769e+307 -1.79769e+307)             (-1.79769e+307 -1.79769e+307 -1.79769e+307)
          0.1             (-1.79769e+307 -1.79769e+307 -1.79769e+307)             (0.0181415 -0.317349 0.028014)             (-0.0120739 0.183737 -0.0320299)             (-1.79769e+307 -1.79769e+307 -1.79769e+307)             (-1.79769e+307 -1.79769e+307 -1.79769e+307)
        0.102             (-1.79769e+307 -1.79769e+307 -1.79769e+307)             (0.0230698 -0.350182 0.0355711)             (-0.0113252 0.214598 -0.0432086)             (-1.79769e+307 -1.79769e+307 -1.79769e+307)             (-1.79769e+307 -1.79769e+307 -1.79769e+307)
        0.104             (-1.79769e+307 -1.79769e+307 -1.79769e+307)             (0.0306469 -0.382954 0.0423887)             (-0.00908072 0.245143 -0.0539014)             (-1.79769e+307 -1.79769e+307 -1.79769e+307)             (-1.79769e+307 -1.79769e+307 -1.79769e+307)
        0.106             (-1.79769e+307 -1.79769e+307 -1.79769e+307)             (0.0404961 -0.418921 0.0491504)             (-0.00434603 0.276714 -0.0640978)             (-1.79769e+307 -1.79769e+307 -1.79769e+307)             (-1.79769e+307 -1.79769e+307 -1.79769e+307)
        0.108             (-1.79769e+307 -1.79769e+307 -1.79769e+307)             (0.0503017 -0.460632 0.0557418)             (4.08272e-05 0.313532 -0.0734226)             (-1.79769e+307 -1.79769e+307 -1.79769e+307)             (-1.79769e+307 -1.79769e+307 -1.79769e+307)
         0.11             (-1.79769e+307 -1.79769e+307 -1.79769e+307)             (0.0601024 -0.507297 0.0614348)             (0.00571944 0.354354 -0.0824391)             (-1.79769e+307 -1.79769e+307 -1.79769e+307)             (-1.79769e+307 -1.79769e+307 -1.79769e+307)
        0.112             (-1.79769e+307 -1.79769e+307 -1.79769e+307)             (0.0702539 -0.558197 0.0668607)             (0.0128219 0.397366 -0.0909096)             (-1.79769e+307 -1.79769e+307 -1.79769e+307)             (-1.79769e+307 -1.79769e+307 -1.79769e+307)
        0.114             (-1.79769e+307 -1.79769e+307 -1.79769e+307)             (0.0811287 -0.614098 0.074502)             (0.0211082 0.443665 -0.100579)             (-1.79769e+307 -1.79769e+307 -1.79769e+307)             (-1.79769e+307 -1.79769e+307 -1.79769e+307)
        0.116             (-1.79769e+307 -1.79769e+307 -1.79769e+307)             (0.0944674 -0.672835 0.0813228)             (0.0313825 0.49274 -0.111483)             (-1.79769e+307 -1.79769e+307 -1.79769e+307)             (-1.79769e+307 -1.79769e+307 -1.79769e+307)
        0.118             (-1.79769e+307 -1.79769e+307 -1.79769e+307)             (0.109746 -0.734843 0.0900342)             (0.0426842 0.545313 -0.121669)             (-1.79769e+307 -1.79769e+307 -1.79769e+307)             (-1.79769e+307 -1.79769e+307 -1.79769e+307)
         0.12             (-1.79769e+307 -1.79769e+307 -1.79769e+307)             (0.127246 -0.800937 0.0994388)             (0.0560098 0.600146 -0.132051)             (-1.79769e+307 -1.79769e+307 -1.79769e+307)             (-1.79769e+307 -1.79769e+307 -1.79769e+307)
        0.122             (-1.79769e+307 -1.79769e+307 -1.79769e+307)             (0.146322 -0.871755 0.110575)             (0.0705745 0.659109 -0.143934)             (-1.79769e+307 -1.79769e+307 -1.79769e+307)             (-1.79769e+307 -1.79769e+307 -1.79769e+307)
        0.124             (-1.79769e+307 -1.79769e+307 -1.79769e+307)             (0.167152 -0.947701 0.121294)             (0.0868041 0.72206 -0.15705)             (-1.79769e+307 -1.79769e+307 -1.79769e+307)             (-1.79769e+307 -1.79769e+307 -1.79769e+307)
        0.126             (-1.79769e+307 -1.79769e+307 -1.79769e+307)             (0.190464 -1.02737 0.132758)             (0.104274 0.788634 -0.171458)             (-1.79769e+307 -1.79769e+307 -1.79769e+307)             (-1.79769e+307 -1.79769e+307 -1.79769e+307)
        0.128             (-1.79769e+307 -1.79769e+307 -1.79769e+307)             (0.215003 -1.11421 0.145226)             (0.123402 0.861096 -0.187949)             (-1.79769e+307 -1.79769e+307 -1.79769e+307)             (-1.79769e+307 -1.79769e+307 -1.79769e+307)
         0.13             (-1.79769e+307 -1.79769e+307 -1.79769e+307)             (0.241543 -1.2085 0.15991)             (0.143482 0.940213 -0.206753)             (-1.79769e+307 -1.79769e+307 -1.79769e+307)             (-1.79769e+307 -1.79769e+307 -1.79769e+307)
        0.132             (-1.79769e+307 -1.79769e+307 -1.79769e+307)             (0.270445 -1.31135 0.175539)             (0.165362 1.02659 -0.227603)             (-1.79769e+307 -1.79769e+307 -1.79769e+307)             (-1.79769e+307 -1.79769e+307 -1.79769e+307)
        0.134             (-1.79769e+307 -1.79769e+307 -1.79769e+307)             (0.302664 -1.42374 0.192953)             (0.189323 1.1216 -0.249818)             (-1.79769e+307 -1.79769e+307 -1.79769e+307)             (-1.79769e+307 -1.79769e+307 -1.79769e+307)
        0.136             (-1.79769e+307 -1.79769e+307 -1.79769e+307)             (0.3384 -1.54548 0.210457)             (0.216119 1.22484 -0.271834)             (-1.79769e+307 -1.79769e+307 -1.79769e+307)             (-1.79769e+307 -1.79769e+307 -1.79769e+307)
        0.138             (-1.79769e+307 -1.79769e+307 -1.79769e+307)             (0.378069 -1.67834 0.227704)             (0.245223 1.33832 -0.294465)             (-1.79769e+307 -1.79769e+307 -1.79769e+307)             (-1.79769e+307 -1.79769e+307 -1.79769e+307)
         0.14             (-1.79769e+307 -1.79769e+307 -1.79769e+307)             (0.421475 -1.82429 0.245806)             (0.276837 1.46435 -0.317484)             (-1.79769e+307 -1.79769e+307 -1.79769e+307)             (-1.79769e+307 -1.79769e+307 -1.79769e+307)
        0.142             (-1.79769e+307 -1.79769e+307 -1.79769e+307)             (0.469115 -1.98682 0.265471)             (0.311309 1.60575 -0.342102)             (-1.79769e+307 -1.79769e+307 -1.79769e+307)             (-1.79769e+307 -1.79769e+307 -1.79769e+307)
        0.144             (-1.79769e+307 -1.79769e+307 -1.79769e+307)             (0.520726 -2.16772 0.286509)             (0.349511 1.76444 -0.3686)             (-1.79769e+307 -1.79769e+307 -1.79769e+307)             (-1.79769e+307 -1.79769e+307 -1.79769e+307)
        0.146             (-1.79769e+307 -1.79769e+307 -1.79769e+307)             (0.576859 -2.36766 0.310059)             (0.39229 1.94107 -0.397435)             (-1.79769e+307 -1.79769e+307 -1.79769e+307)             (-1.79769e+307 -1.79769e+307 -1.79769e+307)
        0.148             (-1.79769e+307 -1.79769e+307 -1.79769e+307)             (0.637299 -2.58949 0.336045)             (0.439236 2.13923 -0.429996)             (-1.79769e+307 -1.79769e+307 -1.79769e+307)             (-1.79769e+307 -1.79769e+307 -1.79769e+307)
         0.15             (-1.79769e+307 -1.79769e+307 -1.79769e+307)             (0.702489 -2.83529 0.364391)             (0.490134 2.36217 -0.465279)             (-1.79769e+307 -1.79769e+307 -1.79769e+307)             (-1.79769e+307 -1.79769e+307 -1.79769e+307)
        0.152             (-1.79769e+307 -1.79769e+307 -1.79769e+307)             (0.772631 -3.10757 0.395473)             (0.54547 2.61303 -0.504151)             (-1.79769e+307 -1.79769e+307 -1.79769e+307)             (-1.79769e+307 -1.79769e+307 -1.79769e+307)
        0.154             (-1.79769e+307 -1.79769e+307 -1.79769e+307)             (0.848381 -3.40852 0.429935)             (0.60592 2.895 -0.546371)             (-1.79769e+307 -1.79769e+307 -1.79769e+307)             (-1.79769e+307 -1.79769e+307 -1.79769e+307)
        0.156             (-1.79769e+307 -1.79769e+307 -1.79769e+307)             (0.930285 -3.74031 0.468192)             (0.672475 3.21126 -0.593318)             (-1.79769e+307 -1.79769e+307 -1.79769e+307)             (-1.79769e+307 -1.79769e+307 -1.79769e+307)
        0.158             (-1.79769e+307 -1.79769e+307 -1.79769e+307)             (1.0191 -4.10541 0.510589)             (0.746217 3.5659 -0.645158)             (-1.79769e+307 -1.79769e+307 -1.79769e+307)             (-1.79769e+307 -1.79769e+307 -1.79769e+307)
         0.16             (-1.79769e+307 -1.79769e+307 -1.79769e+307)             (1.11561 -4.50626 0.557743)             (0.828305 3.96377 -0.70189)             (-1.79769e+307 -1.79769e+307 -1.79769e+307)             (-1.79769e+307 -1.79769e+307 -1.79769e+307)
        0.162             (-1.79769e+307 -1.79769e+307 -1.79769e+307)             (1.2207 -4.94568 0.609619)             (0.92037 4.40974 -0.763285)             (-1.79769e+307 -1.79769e+307 -1.79769e+307)             (-1.79769e+307 -1.79769e+307 -1.79769e+307)
        0.164             (-1.79769e+307 -1.79769e+307 -1.79769e+307)             (1.33533 -5.42645 0.666393)             (1.02391 4.91032 -0.828992)             (-1.79769e+307 -1.79769e+307 -1.79769e+307)             (-1.79769e+307 -1.79769e+307 -1.79769e+307)
        0.166             (-1.79769e+307 -1.79769e+307 -1.79769e+307)             (1.46027 -5.95169 0.72861)             (1.14068 5.473 -0.898794)             (-1.79769e+307 -1.79769e+307 -1.79769e+307)             (-1.79769e+307 -1.79769e+307 -1.79769e+307)
        0.168             (-1.79769e+307 -1.79769e+307 -1.79769e+307)             (1.5965 -6.52438 0.796293)             (1.27308 6.10583 -0.971904)             (-1.79769e+307 -1.79769e+307 -1.79769e+307)             (-1.79769e+307 -1.79769e+307 -1.79769e+307)
         0.17             (-1.79769e+307 -1.79769e+307 -1.79769e+307)             (1.74504 -7.1474 0.869098)             (1.42397 6.81814 -1.04677)             (-1.79769e+307 -1.79769e+307 -1.79769e+307)             (-1.79769e+307 -1.79769e+307 -1.79769e+307)
        0.172             (-1.79769e+307 -1.79769e+307 -1.79769e+307)             (1.90702 -7.82323 0.946619)             (1.59691 7.62006 -1.12122)             (-1.79769e+307 -1.79769e+307 -1.79769e+307)             (-1.79769e+307 -1.79769e+307 -1.79769e+307)
        0.174             (-1.79769e+307 -1.79769e+307 -1.79769e+307)             (2.08344 -8.55437 1.02815)             (1.79621 8.52284 -1.19217)             (-1.79769e+307 -1.79769e+307 -1.79769e+307)             (-1.79769e+307 -1.79769e+307 -1.79769e+307)
        0.176             (-1.79769e+307 -1.79769e+307 -1.79769e+307)             (2.2753 -9.34279 1.11264)             (2.02689 9.53894 -1.25514)             (-1.79769e+307 -1.79769e+307 -1.79769e+307)             (-1.79769e+307 -1.79769e+307 -1.79769e+307)
        0.178             (-1.79769e+307 -1.79769e+307 -1.79769e+307)             (2.4833 -10.1903 1.19849)             (2.2948 10.6816 -1.30402)             (-1.79769e+307 -1.79769e+307 -1.79769e+307)             (-1.79769e+307 -1.79769e+307 -1.79769e+307)
         0.18             (-1.79769e+307 -1.79769e+307 -1.79769e+307)             (2.70793 -11.0979 1.28362)             (2.60651 11.9643 -1.33056)             (-1.79769e+307 -1.79769e+307 -1.79769e+307)             (-1.79769e+307 -1.79769e+307 -1.79769e+307)
        0.182             (-1.79769e+307 -1.79769e+307 -1.79769e+307)             (2.94907 -12.0661 1.36532)             (2.96889 13.4001 -1.32423)             (-1.79769e+307 -1.79769e+307 -1.79769e+307)             (-1.79769e+307 -1.79769e+307 -1.79769e+307)
        0.184             (-1.79769e+307 -1.79769e+307 -1.79769e+307)             (3.2057 -13.0948 1.4401)             (3.38841 15 -1.27207)             (-1.79769e+307 -1.79769e+307 -1.79769e+307)             (-1.79769e+307 -1.79769e+307 -1.79769e+307)
        0.186             (-1.79769e+307 -1.79769e+307 -1.79769e+307)             (3.47548 -14.183 1.50383)             (3.86998 16.7719 -1.1589)             (-1.79769e+307 -1.79769e+307 -1.79769e+307)             (-1.79769e+307 -1.79769e+307 -1.79769e+307)
        0.188             (-1.79769e+307 -1.79769e+307 -1.79769e+307)             (3.75426 -15.3289 1.55191)             (4.41524 18.7179 -0.968179)             (-1.79769e+307 -1.79769e+307 -1.79769e+307)             (-1.79769e+307 -1.79769e+307 -1.79769e+307)
         0.19             (-1.79769e+307 -1.79769e+307 -1.79769e+307)             (4.03531 -16.5284 1.57926)             (5.02073 20.8325 -0.683361)             (-1.79769e+307 -1.79769e+307 -1.79769e+307)             (-1.79769e+307 -1.79769e+307 -1.79769e+307)
        0.192             (-1.79769e+307 -1.79769e+307 -1.79769e+307)             (4.30913 -17.775 1.58029)             (5.67672 23.1003 -0.290174)             (-1.79769e+307 -1.79769e+307 -1.79769e+307)             (-1.79769e+307 -1.79769e+307 -1.79769e+307)
        0.194             (-1.79769e+307 -1.79769e+307 -1.79769e+307)             (4.5621 -19.0608 1.54971)             (6.36606 25.4944 0.220226)             (-1.79769e+307 -1.79769e+307 -1.79769e+307)             (-1.79769e+307 -1.79769e+307 -1.79769e+307)
        0.196             (-1.79769e+307 -1.79769e+307 -1.79769e+307)             (4.77571 -20.3731 1.48278)             (7.06273 27.9788 0.849096)             (-1.79769e+307 -1.79769e+307 -1.79769e+307)             (-1.79769e+307 -1.79769e+307 -1.79769e+307)
        0.198             (-1.79769e+307 -1.79769e+307 -1.79769e+307)             (4.92664 -21.6886 1.3757)             (7.73615 30.5113 1.59051)             (-1.79769e+307 -1.79769e+307 -1.79769e+307)             (-1.79769e+307 -1.79769e+307 -1.79769e+307)
          0.2             (-1.79769e+307 -1.79769e+307 -1.79769e+307)             (4.98751 -22.9705 1.22586)             (8.35952 33.0294 2.42357)             (-1.79769e+307 -1.79769e+307 -1.79769e+307)             (-1.79769e+307 -1.79769e+307 -1.79769e+307)
        0.202             (-1.79769e+307 -1.79769e+307 -1.79769e+307)             (4.92934 -24.1673 1.03101)             (8.92539 35.4734 3.31417)             (-1.79769e+307 -1.79769e+307 -1.79769e+307)             (-1.79769e+307 -1.79769e+307 -1.79769e+307)
        0.204             (-1.79769e+307 -1.79769e+307 -1.79769e+307)             (4.72728 -25.2094 0.786852)             (9.42775 37.824 4.23162)             (-1.79769e+307 -1.79769e+307 -1.79769e+307)             (-1.79769e+307 -1.79769e+307 -1.79769e+307)
        0.206             (-1.79769e+307 -1.79769e+307 -1.79769e+307)             (4.37037 -26.0141 0.48309)             (9.88902 40.049 5.13211)             (-1.79769e+307 -1.79769e+307 -1.79769e+307)             (-1.79769e+307 -1.79769e+307 -1.79769e+307)
        0.208             (-1.79769e+307 -1.79769e+307 -1.79769e+307)             (3.87173 -26.501 0.100192)             (10.3345 42.0857 5.9427)             (-1.79769e+307 -1.79769e+307 -1.79769e+307)             (-1.79769e+307 -1.79769e+307 -1.79769e+307)
         0.21             (-1.79769e+307 -1.79769e+307 -1.79769e+307)             (3.27258 -26.6071 -0.389345)             (10.7725 43.8106 6.57237)             (-1.79769e+307 -1.79769e+307 -1.79769e+307)             (-1.79769e+307 -1.79769e+307 -1.79769e+307)
        0.212             (-1.79769e+307 -1.79769e+307 -1.79769e+307)             (2.63442 -26.3 -1.01707)             (11.2023 45.0955 6.91911)             (-1.79769e+307 -1.79769e+307 -1.79769e+307)             (-1.79769e+307 -1.79769e+307 -1.79769e+307)
        0.214             (-1.79769e+307 -1.79769e+307 -1.79769e+307)             (2.02653 -25.6031 -1.81099)             (11.6173 45.8436 6.89998)             (-1.79769e+307 -1.79769e+307 -1.79769e+307)             (-1.79769e+307 -1.79769e+307 -1.79769e+307)
        0.216             (-1.79769e+307 -1.79769e+307 -1.79769e+307)             (1.51065 -24.6147 -2.78165)             (11.9806 45.9084 6.43704)             (-1.79769e+307 -1.79769e+307 -1.79769e+307)             (-1.79769e+307 -1.79769e+307 -1.79769e+307)
        0.218             (-1.79769e+307 -1.79769e+307 -1.79769e+307)             (1.12659 -23.4968 -3.9079)             (12.2302 45.1472 5.44784)             (-1.79769e+307 -1.79769e+307 -1.79769e+307)             (-1.79769e+307 -1.79769e+307 -1.79769e+307)
         0.22             (-1.79769e+307 -1.79769e+307 -1.79769e+307)             (0.887724 -22.4339 -5.13505)             (12.3225 43.585 3.96048)             (-1.79769e+307 -1.79769e+307 -1.79769e+307)             (-1.79769e+307 -1.79769e+307 -1.79769e+307)